[Molden Format]
[FR-COORD] # Coordinates in bohr
  C    +2.678957    -0.961921    -0.029017 
  C    +0.755044    +0.621723    -0.004584 
  H    +4.605319    -0.331672    -0.050721 
  C    +0.979375    +3.466145    -0.004040 
  C    -1.848730    -0.433383    +0.025337 
  H    +2.350870    -2.962596    -0.027454 
  H    +2.940553    +4.044122    -0.026765 
  H    +0.055112    +4.271202    -1.650599 
  H    +0.094300    +4.267514    +1.665675 
  O    -2.346822    -2.667187    +0.012858 
  H    -3.337194    +0.981738    +0.032325 
[FREQ] # Frequencies in cm^-1
  157.4502
  160.9475
  307.4229
  416.3503
  470.9715
  640.3465
  783.4315
  928.6897
 1033.1997
 1146.3918
 1147.9382
 1161.3792
 1227.6547
 1394.0644
 1554.6081
 1583.4655
 1598.3715
 1658.0296
 1662.0900
 1839.7674
 1915.5592
 3166.1073
 3188.3184
 3230.4816
 3276.4536
 3328.7191
 3411.6165
[FR-NORM-COORD] # Displacements in bohr
vibration  1
      -0.001     +0.000     -0.060
      -0.000     +0.000     -0.017
      -0.001     +0.000     -0.040
      +0.001     +0.000     +0.037
      -0.000     +0.000     -0.037
      -0.002     +0.000     -0.118
      +0.007     -0.001     +0.610
      +0.482     -0.010     -0.240
      -0.488     +0.011     -0.228
      +0.001     -0.001     +0.069
      -0.001     +0.000     -0.145
vibration  2
      -0.001     +0.000     -0.019
      -0.001     +0.001     -0.068
      +0.001     -0.001     +0.094
      +0.002     +0.000     +0.105
      -0.003     +0.001     -0.223
      -0.002     +0.000     -0.095
      -0.001     +0.000     -0.141
      -0.242     +0.135     +0.308
      +0.251     -0.134     +0.302
      +0.002     -0.002     +0.170
      -0.006     +0.001     -0.723
vibration  3
      +0.266     +0.043     -0.002
      +0.136     -0.113     -0.002
      +0.208     +0.227     -0.001
      -0.170     -0.095     +0.002
      +0.082     +0.019     -0.002
      +0.465     +0.007     -0.004
      -0.254     +0.181     +0.003
      -0.290     -0.223     +0.006
      -0.290     -0.224     +0.001
      -0.242     +0.099     +0.004
      +0.252     +0.204     -0.007
vibration  4
      -0.081     -0.203     +0.000
      +0.086     +0.006     -0.000
      +0.015     -0.503     -0.002
      -0.177     +0.010     +0.002
      +0.097     +0.098     -0.001
      -0.406     -0.152     +0.003
      -0.269     +0.314     +0.003
      -0.317     -0.134     +0.007
      -0.316     -0.132     -0.001
      +0.131     +0.100     -0.001
      +0.097     +0.098     -0.004
vibration  5
      -0.001     +0.001     -0.093
      +0.003     -0.001     +0.340
      -0.004     +0.003     -0.322
      -0.000     -0.001     -0.035
      -0.001     +0.000     -0.035
      -0.001     +0.001     -0.305
      -0.002     -0.002     -0.240
      -0.052     -0.344     -0.180
      +0.049     +0.344     -0.180
      -0.000     -0.000     -0.021
      -0.004     +0.001     -0.558
vibration  6
      -0.023     +0.076     +0.000
      -0.150     -0.111     +0.000
      -0.157     +0.490     +0.003
      -0.029     -0.322     +0.000
      -0.078     +0.180     +0.001
      +0.379     +0.020     -0.003
      -0.004     -0.420     +0.001
      +0.017     -0.257     +0.004
      +0.017     -0.261     -0.003
      +0.203     +0.152     -0.001
      -0.129     +0.121     +0.001
vibration  7
      +0.000     -0.000     +0.006
      +0.000     -0.000     +0.006
      -0.008     +0.001     -0.680
      +0.000     +0.000     -0.005
      -0.000     -0.000     +0.013
      +0.008     -0.001     +0.649
      +0.001     +0.000     +0.116
      +0.013     +0.152     +0.067
      -0.012     -0.152     +0.067
      -0.000     -0.000     -0.016
      -0.002     +0.000     -0.215
vibration  8
      +0.152     -0.161     -0.002
      +0.054     -0.111     -0.001
      +0.075     +0.114     +0.003
      +0.043     +0.169     -0.000
      -0.345     +0.080     +0.005
      +0.506     -0.221     -0.009
      -0.041     +0.458     +0.001
      -0.098     +0.045     +0.014
      -0.098     +0.045     -0.011
      +0.080     -0.007     -0.001
      -0.462     -0.048     +0.001
vibration  9
      -0.061     -0.118     +0.001
      -0.126     -0.150     +0.001
      -0.236     +0.431     +0.003
      -0.056     +0.165     +0.001
      +0.165     -0.009     -0.003
      +0.535     -0.211     -0.005
      +0.048     -0.169     -0.001
      +0.120     +0.297     -0.028
      +0.121     +0.298     +0.026
      +0.005     +0.038     +0.000
      +0.260     +0.083     +0.001
vibration  10
      +0.112     +0.002     -0.003
      -0.004     -0.024     -0.002
      +0.237     -0.372     +0.046
      -0.130     +0.015     -0.013
      -0.049     +0.016     +0.033
      -0.203     +0.042     -0.035
      +0.067     -0.623     +0.027
      +0.242     +0.360     -0.044
      +0.245     +0.239     +0.073
      +0.019     +0.014     -0.008
      -0.034     +0.032     -0.125
vibration  11
      +0.022     +0.000     +0.007
      -0.000     -0.004     +0.009
      +0.042     -0.071     -0.287
      -0.023     +0.002     +0.083
      -0.012     +0.004     -0.182
      -0.035     +0.008     +0.214
      +0.010     -0.115     -0.163
      +0.050     -0.294     -0.109
      +0.038     +0.404     -0.087
      +0.004     +0.002     +0.044
      -0.004     +0.006     +0.712
vibration  12
      +0.002     -0.000     +0.153
      -0.000     -0.000     -0.004
      -0.007     +0.001     -0.599
      -0.001     +0.000     -0.048
      -0.000     +0.000     -0.031
      -0.008     +0.001     -0.710
      +0.001     +0.000     +0.101
      -0.011     +0.191     +0.057
      +0.013     -0.191     +0.056
      +0.000     -0.000     +0.008
      +0.001     -0.000     +0.142
vibration  13
      +0.000     -0.000     +0.075
      -0.002     +0.000     -0.166
      -0.004     +0.002     -0.287
      +0.002     -0.000     +0.134
      +0.002     -0.001     +0.118
      -0.001     +0.000     -0.153
      -0.003     +0.001     -0.291
      +0.046     -0.497     -0.151
      -0.050     +0.497     -0.149
      -0.000     +0.000     -0.028
      -0.002     -0.000     -0.449
vibration  14
      -0.075     -0.125     +0.001
      +0.195     +0.246     -0.002
      -0.238     +0.429     +0.003
      -0.098     -0.067     +0.001
      -0.019     +0.003     +0.000
      +0.508     -0.206     -0.006
      +0.009     -0.411     -0.000
      +0.156     +0.050     -0.074
      +0.157     +0.050     +0.070
      -0.026     -0.024     +0.000
      -0.225     -0.198     +0.002
vibration  15
      -0.025     +0.001     +0.000
      +0.066     -0.010     -0.001
      -0.117     +0.264     +0.002
      -0.021     -0.020     +0.000
      -0.082     +0.016     +0.001
      -0.192     +0.035     +0.002
      -0.045     +0.091     +0.000
      +0.100     +0.089     -0.017
      +0.100     +0.089     +0.015
      +0.021     -0.072     -0.001
      +0.554     +0.712     -0.002
vibration  16
      +0.011     -0.010     -0.000
      -0.001     -0.004     +0.000
      -0.019     +0.073     +0.000
      -0.008     -0.124     -0.000
      +0.018     -0.005     -0.000
      -0.078     +0.005     +0.001
      -0.174     +0.498     +0.003
      +0.125     +0.513     +0.214
      +0.120     +0.514     -0.215
      -0.006     +0.017     +0.000
      -0.124     -0.167     +0.000
vibration  17
      +0.017     -0.005     -0.000
      +0.072     -0.087     -0.001
      -0.189     +0.573     +0.003
      -0.023     +0.039     +0.000
      +0.009     -0.002     -0.000
      -0.639     +0.108     +0.008
      +0.008     -0.033     +0.000
      +0.110     -0.084     -0.125
      +0.113     -0.084     +0.122
      -0.004     +0.027     +0.000
      -0.236     -0.273     +0.002
vibration  18
      -0.000     +0.000     +0.001
      -0.000     -0.000     -0.020
      +0.001     -0.003     -0.000
      -0.001     +0.000     -0.052
      +0.000     -0.000     +0.004
      +0.002     -0.000     +0.006
      +0.006     +0.004     +0.705
      -0.396     -0.295     +0.052
      +0.409     +0.289     +0.052
      +0.000     -0.000     -0.001
      +0.000     +0.000     -0.016
vibration  19
      -0.019     +0.022     +0.000
      -0.018     -0.005     +0.000
      +0.047     -0.182     -0.001
      -0.051     -0.006     +0.001
      +0.006     -0.003     -0.000
      +0.159     -0.008     -0.002
      -0.147     +0.404     -0.007
      +0.471     -0.173     -0.356
      +0.469     -0.182     +0.343
      -0.000     +0.004     +0.000
      -0.013     -0.027     +0.000
vibration  20
      +0.290     -0.227     -0.004
      -0.332     +0.247     +0.004
      +0.122     +0.455     -0.001
      +0.018     -0.034     -0.000
      +0.110     +0.234     +0.001
      -0.471     -0.152     +0.006
      -0.045     +0.155     +0.001
      +0.050     -0.179     -0.089
      +0.052     -0.180     +0.088
      -0.045     -0.178     -0.001
      -0.025     +0.104     -0.000
vibration  21
      -0.151     +0.144     +0.002
      +0.164     -0.210     -0.002
      -0.039     -0.327     +0.000
      -0.022     +0.017     +0.000
      +0.133     +0.503     +0.002
      +0.255     +0.122     -0.003
      +0.012     -0.096     -0.000
      -0.025     +0.116     +0.054
      -0.026     +0.116     -0.052
      -0.073     -0.326     -0.002
      -0.491     -0.171     +0.005
vibration  22
      +0.001     +0.001     +0.000
      -0.001     -0.003     +0.000
      -0.010     -0.004     +0.000
      -0.005     +0.010     +0.000
      +0.061     -0.056     -0.000
      -0.001     +0.004     +0.000
      -0.054     -0.010     +0.001
      +0.060     -0.047     +0.109
      +0.057     -0.047     -0.110
      +0.000     +0.001     +0.000
      -0.720     +0.661     +0.005
vibration  23
      +0.001     -0.000     +0.000
      -0.000     -0.000     +0.000
      -0.011     -0.004     +0.000
      +0.018     -0.047     -0.000
      +0.012     -0.011     -0.000
      +0.003     +0.009     -0.000
      +0.345     +0.087     -0.004
      -0.287     +0.240     -0.528
      -0.274     +0.238     +0.534
      -0.000     +0.000     +0.000
      -0.139     +0.125     +0.001
vibration  24
      -0.000     -0.000     -0.000
      -0.000     +0.000     -0.000
      -0.000     -0.000     +0.000
      -0.001     +0.000     -0.092
      -0.000     +0.000     +0.000
      -0.000     -0.000     -0.001
      +0.001     +0.000     -0.025
      +0.328     -0.277     +0.557
      -0.315     +0.276     +0.566
      +0.000     +0.000     -0.000
      +0.000     -0.000     -0.001
vibration  25
      +0.003     -0.000     -0.000
      -0.001     +0.001     +0.000
      -0.032     -0.013     +0.000
      -0.090     -0.007     +0.001
      -0.001     +0.001     +0.000
      +0.004     +0.011     -0.000
      +0.898     +0.256     -0.010
      +0.090     -0.096     +0.204
      +0.086     -0.096     -0.207
      +0.000     -0.000     -0.000
      +0.013     -0.010     -0.000
vibration  26
      -0.056     +0.042     +0.001
      +0.006     -0.006     -0.000
      +0.692     +0.232     -0.008
      -0.003     -0.001     +0.000
      +0.001     +0.001     -0.000
      -0.113     -0.670     +0.001
      +0.033     +0.011     -0.000
      -0.000     +0.002     +0.001
      -0.000     +0.002     -0.001
      +0.000     -0.001     -0.000
      -0.011     +0.007     +0.000
vibration  27
      +0.062     +0.077     -0.001
      +0.001     +0.002     -0.000
      -0.643     -0.204     +0.007
      +0.001     -0.000     -0.000
      -0.001     +0.001     +0.000
      -0.105     -0.723     +0.000
      -0.014     -0.007     +0.000
      -0.002     +0.001     -0.002
      -0.002     +0.001     +0.002
      +0.000     -0.000     -0.000
      +0.003     -0.003     -0.000
