[Molden Format]
[FR-COORD] # Coordinates in bohr
  C    +2.426191    -2.080197    -0.406234 
  C    +0.918076    -0.190198    +0.145983 
  H    +4.379113    -1.768848    -0.843879 
  O    +1.791507    +2.314953    +0.227677 
  C    -1.788288    -0.531572    +0.847667 
  H    +1.745431    -3.985875    -0.409891 
  C    -3.681614    +0.006487    -0.670869 
  H    -2.149247    -1.213620    +2.726588 
  H    -5.610190    -0.230679    -0.091504 
  H    -3.388699    +0.691136    -2.559362 
  H    +1.900639    +3.053220    -1.441684 
[FREQ] # Frequencies in cm^-1
 -383.5551
 -152.3063
  294.2636
  349.8609
  480.6953
  696.8948
  775.4513
  817.8187
  862.3813
 1035.7535
 1104.7713
 1117.3370
 1158.3783
 1208.3558
 1275.2734
 1440.1918
 1463.8138
 1580.9227
 1616.1383
 1835.6485
 1882.8670
 3314.0580
 3331.8408
 3341.3369
 3392.4248
 3423.9922
 3849.3806
[FR-NORM-COORD] # Displacements in bohr
vibration  1
      -0.000     -0.001     -0.013
      +0.006     +0.002     +0.006
      +0.007     -0.028     -0.012
      -0.080     +0.024     -0.005
      +0.008     -0.012     +0.011
      -0.017     +0.006     -0.043
      +0.012     +0.009     +0.013
      +0.011     -0.065     -0.009
      +0.011     -0.022     -0.001
      +0.019     +0.066     +0.036
      +0.933     -0.317     -0.085
vibration  2
      -0.084     +0.000     -0.100
      -0.005     +0.033     -0.003
      -0.079     -0.055     -0.120
      +0.069     +0.005     +0.087
      -0.002     +0.144     +0.059
      -0.153     +0.026     -0.162
      +0.000     -0.178     -0.057
      -0.000     +0.582     +0.219
      -0.001     -0.041     -0.003
      +0.007     -0.591     -0.205
      +0.216     +0.012     +0.100
vibration  3
      +0.009     +0.015     +0.097
      +0.006     +0.075     -0.109
      +0.072     -0.057     +0.325
      +0.180     +0.015     +0.039
      -0.019     +0.002     -0.157
      -0.051     +0.036     +0.052
      -0.222     -0.080     +0.064
      +0.128     -0.187     -0.193
      -0.125     -0.344     +0.288
      -0.534     +0.100     +0.083
      +0.336     +0.080     +0.078
vibration  4
      -0.179     +0.004     -0.017
      -0.004     +0.106     +0.101
      -0.187     -0.188     -0.184
      +0.100     +0.072     -0.044
      +0.003     -0.069     +0.054
      -0.358     +0.067     +0.045
      +0.076     -0.076     -0.036
      -0.038     -0.486     -0.108
      +0.045     -0.439     -0.290
      +0.188     +0.294     +0.115
      -0.015     +0.011     -0.079
vibration  5
      -0.082     -0.159     +0.047
      +0.088     +0.036     -0.128
      -0.006     -0.598     +0.090
      -0.154     +0.100     +0.067
      +0.156     +0.016     -0.089
      -0.456     -0.032     +0.180
      +0.070     -0.001     +0.034
      +0.256     +0.062     -0.052
      +0.117     +0.009     +0.192
      -0.076     -0.035     -0.001
      -0.159     +0.282     +0.146
vibration  6
      +0.064     -0.076     -0.065
      +0.188     -0.046     +0.309
      +0.023     -0.208     -0.349
      -0.038     +0.068     -0.022
      -0.003     +0.066     -0.110
      -0.105     -0.018     -0.251
      -0.115     +0.012     -0.041
      -0.214     +0.071     -0.142
      -0.009     -0.130     +0.273
      -0.486     +0.025     -0.091
      -0.205     -0.292     -0.197
vibration  7
      +0.019     -0.019     -0.006
      -0.013     -0.029     -0.026
      +0.012     +0.145     +0.069
      -0.071     -0.105     +0.008
      +0.052     +0.246     +0.037
      +0.160     -0.067     -0.054
      +0.024     -0.016     -0.008
      +0.077     -0.176     -0.113
      +0.069     -0.774     -0.168
      -0.093     +0.379     +0.118
      -0.077     -0.004     +0.057
vibration  8
      +0.040     -0.031     -0.008
      +0.026     -0.008     -0.035
      -0.102     -0.026     -0.645
      +0.007     +0.017     +0.027
      -0.042     +0.012     +0.020
      +0.186     -0.087     +0.671
      -0.038     +0.002     -0.018
      -0.073     -0.031     -0.001
      -0.050     -0.035     -0.069
      -0.012     +0.040     -0.001
      +0.109     +0.179     +0.105
vibration  9
      -0.131     +0.133     +0.042
      -0.086     +0.046     +0.086
      -0.253     +0.341     -0.336
      -0.018     -0.141     +0.001
      +0.161     -0.024     -0.151
      +0.051     +0.076     +0.337
      +0.093     +0.003     -0.001
      +0.102     +0.083     -0.125
      +0.225     +0.103     +0.476
      -0.306     -0.111     -0.099
      +0.028     -0.131     +0.014
vibration  10
      +0.085     +0.145     +0.006
      +0.115     +0.129     +0.001
      +0.158     -0.538     -0.106
      -0.052     -0.199     -0.026
      -0.042     -0.009     +0.027
      -0.573     +0.377     +0.066
      -0.057     +0.005     +0.005
      +0.010     +0.008     +0.045
      -0.124     +0.060     -0.190
      +0.118     -0.038     +0.011
      +0.016     +0.076     +0.118
vibration  11
      +0.030     -0.024     +0.162
      -0.021     -0.000     -0.046
      -0.173     +0.110     -0.655
      +0.001     +0.003     -0.005
      +0.005     +0.005     -0.005
      -0.106     +0.027     -0.678
      -0.004     -0.011     +0.003
      +0.077     +0.001     +0.006
      -0.022     +0.047     -0.036
      +0.054     +0.034     +0.027
      +0.030     +0.097     +0.039
vibration  12
      +0.001     +0.005     -0.005
      +0.000     -0.002     -0.000
      +0.010     -0.013     +0.023
      -0.000     -0.003     -0.000
      -0.002     -0.021     -0.005
      -0.012     +0.010     +0.029
      +0.006     -0.100     -0.038
      -0.024     +0.491     +0.177
      +0.006     +0.208     +0.091
      -0.029     +0.766     +0.271
      -0.011     -0.009     -0.004
vibration  13
      +0.001     -0.008     -0.008
      +0.011     +0.007     +0.002
      +0.011     +0.009     +0.046
      -0.007     -0.008     -0.002
      -0.003     +0.114     +0.042
      +0.027     -0.017     -0.004
      -0.004     -0.114     -0.042
      +0.027     -0.623     -0.221
      -0.020     +0.683     +0.233
      +0.010     +0.068     +0.026
      +0.002     +0.033     +0.019
vibration  14
      +0.044     +0.015     +0.009
      -0.037     -0.012     -0.050
      +0.071     -0.175     +0.009
      +0.010     +0.006     -0.013
      -0.062     -0.024     +0.092
      -0.134     +0.074     -0.079
      +0.103     +0.024     -0.061
      -0.534     -0.050     -0.009
      +0.279     -0.171     +0.473
      -0.468     +0.023     -0.134
      +0.066     +0.186     +0.075
vibration  15
      -0.065     -0.062     -0.007
      +0.106     +0.072     +0.062
      -0.074     +0.312     +0.180
      -0.030     -0.047     -0.065
      -0.008     -0.033     +0.003
      +0.242     -0.161     -0.146
      -0.015     +0.006     +0.000
      -0.114     +0.065     +0.021
      -0.025     +0.022     -0.017
      -0.017     -0.022     -0.012
      +0.251     +0.731     +0.324
vibration  16
      +0.075     +0.054     -0.030
      -0.186     -0.171     +0.124
      +0.132     -0.371     -0.007
      +0.023     +0.039     -0.058
      +0.037     +0.053     -0.090
      -0.223     +0.144     +0.036
      -0.000     -0.022     +0.051
      +0.071     +0.027     -0.102
      +0.001     -0.027     +0.006
      +0.295     -0.014     +0.104
      +0.246     +0.654     +0.245
vibration  17
      +0.006     +0.005     -0.006
      -0.022     -0.022     +0.036
      +0.018     -0.057     +0.008
      +0.002     +0.004     -0.011
      -0.023     -0.032     +0.079
      -0.005     +0.006     +0.001
      -0.009     +0.040     -0.107
      +0.844     -0.066     +0.239
      +0.021     -0.010     +0.017
      -0.388     +0.053     -0.167
      +0.040     +0.114     +0.045
vibration  18
      +0.008     +0.001     -0.000
      +0.052     -0.108     -0.023
      -0.089     +0.604     +0.072
      +0.002     +0.020     -0.002
      +0.044     -0.000     +0.028
      -0.630     +0.242     +0.167
      -0.015     -0.000     -0.002
      -0.100     -0.021     -0.002
      -0.096     +0.062     -0.219
      -0.206     +0.017     -0.034
      +0.031     +0.055     +0.014
vibration  19
      -0.009     +0.020     +0.004
      -0.049     +0.006     +0.005
      +0.035     -0.276     -0.014
      +0.003     +0.000     -0.002
      +0.117     -0.011     +0.033
      +0.226     -0.068     -0.072
      +0.002     -0.010     +0.025
      -0.245     +0.006     -0.025
      -0.229     +0.219     -0.597
      -0.565     +0.016     -0.073
      +0.011     +0.023     +0.009
vibration  20
      +0.125     -0.151     -0.048
      -0.090     +0.162     +0.054
      +0.095     +0.281     -0.030
      -0.002     -0.019     +0.000
      -0.248     +0.043     -0.152
      -0.280     -0.039     +0.091
      +0.241     -0.060     +0.176
      +0.291     +0.051     -0.092
      +0.074     +0.173     -0.416
      -0.494     -0.065     +0.103
      -0.009     -0.043     -0.009
vibration  21
      -0.218     +0.262     +0.077
      +0.276     -0.299     -0.075
      -0.199     -0.366     +0.005
      -0.001     +0.031     -0.003
      -0.244     +0.054     -0.098
      +0.429     +0.098     -0.096
      +0.166     -0.045     +0.125
      +0.207     -0.004     -0.068
      +0.075     +0.048     -0.243
      -0.282     -0.025     +0.102
      +0.021     +0.076     +0.015
vibration  22
      +0.000     -0.000     -0.000
      -0.000     +0.000     -0.000
      -0.006     -0.001     +0.001
      -0.000     -0.000     +0.000
      +0.011     +0.008     -0.021
      +0.002     +0.004     -0.000
      -0.047     +0.015     -0.043
      -0.058     -0.109     +0.300
      +0.600     +0.078     -0.191
      -0.108     -0.235     +0.648
      -0.001     +0.000     -0.000
vibration  23
      -0.006     +0.007     +0.002
      +0.002     -0.001     -0.000
      +0.095     +0.017     -0.020
      +0.000     -0.000     +0.000
      -0.007     -0.028     +0.075
      -0.031     -0.084     +0.000
      -0.007     +0.011     -0.032
      +0.159     +0.308     -0.845
      +0.059     +0.009     -0.021
      -0.055     -0.125     +0.343
      -0.001     -0.000     +0.000
vibration  24
      +0.047     -0.050     -0.016
      -0.006     +0.008     +0.002
      -0.715     -0.117     +0.159
      -0.000     +0.000     +0.000
      -0.001     -0.004     +0.010
      +0.225     +0.614     +0.000
      -0.000     +0.001     -0.004
      +0.023     +0.041     -0.113
      +0.002     +0.001     -0.000
      -0.007     -0.015     +0.040
      -0.001     -0.003     -0.001
vibration  25
      -0.000     +0.000     +0.000
      -0.001     +0.000     +0.000
      +0.001     -0.000     -0.001
      -0.000     -0.000     +0.000
      +0.002     +0.006     -0.017
      -0.000     -0.001     +0.000
      +0.069     +0.024     -0.063
      -0.032     -0.066     +0.180
      -0.732     -0.087     +0.212
      -0.077     -0.204     +0.562
      -0.001     +0.000     -0.001
vibration  26
      +0.072     +0.067     -0.011
      +0.002     +0.001     -0.000
      -0.634     -0.090     +0.143
      -0.000     -0.001     +0.000
      -0.001     -0.000     +0.000
      -0.242     -0.708     -0.004
      -0.000     -0.000     +0.000
      -0.002     +0.000     +0.001
      -0.000     +0.000     +0.000
      +0.000     +0.001     -0.001
      +0.002     -0.003     +0.000
vibration  27
      -0.000     -0.001     +0.000
      -0.000     -0.001     -0.002
      +0.000     +0.001     -0.002
      +0.005     +0.028     -0.056
      -0.000     -0.000     -0.000
      +0.001     -0.000     +0.002
      -0.000     +0.000     -0.000
      -0.000     -0.000     +0.000
      -0.001     +0.000     -0.000
      -0.000     -0.001     +0.001
      -0.069     -0.420     +0.903
