[Molden Format]
[FR-COORD] # Coordinates in bohr
  C    -3.108931    -1.447974    +0.000005 
  C    -0.975693    -0.150878    +0.000008 
  H    -4.925352    -0.547534    +0.000001 
  O    -0.836283    +2.448999    -0.000002 
  C    +1.528045    -1.344260    -0.000009 
  H    -3.084835    -3.468859    -0.000003 
  C    +3.658405    -0.055478    -0.000007 
  H    +1.522671    -3.371207    +0.000006 
  H    +5.456919    -0.989414    +0.000029 
  H    +3.659407    +1.967665    +0.000042 
  H    -2.475668    +3.245671    -0.000011 
[FREQ] # Frequencies in cm^-1
  156.7273
  312.9659
  388.5948
  494.0614
  522.8369
  640.2521
  793.7304
  861.7297
  865.0652
 1040.0706
 1064.8651
 1136.0431
 1172.6880
 1173.2189
 1298.2157
 1468.3030
 1522.3314
 1584.5455
 1632.4822
 1811.2829
 1882.1274
 3336.5300
 3338.9109
 3362.9335
 3424.8266
 3428.3117
 3910.7916
[FR-NORM-COORD] # Displacements in bohr
vibration  1
      -0.000     +0.000     -0.152
      -0.000     -0.000     +0.066
      -0.000     +0.000     -0.310
      +0.000     -0.000     +0.094
      +0.000     -0.000     +0.215
      -0.000     +0.000     -0.185
      -0.000     +0.000     -0.188
      +0.000     +0.000     +0.598
      +0.000     +0.000     -0.124
      +0.000     +0.000     -0.589
      +0.000     -0.000     -0.177
vibration  2
      -0.115     +0.070     +0.000
      -0.000     -0.123     -0.000
      -0.019     +0.265     +0.000
      +0.212     -0.131     -0.000
      +0.016     -0.074     -0.000
      -0.324     +0.067     +0.000
      -0.155     +0.218     +0.000
      +0.195     -0.072     -0.000
      -0.010     +0.499     +0.000
      -0.476     +0.213     +0.000
      +0.288     +0.021     +0.000
vibration  3
      +0.000     -0.000     -0.017
      -0.000     +0.000     -0.019
      +0.000     -0.000     -0.114
      -0.000     -0.000     -0.057
      +0.000     +0.000     +0.036
      +0.000     -0.000     +0.055
      +0.000     -0.000     -0.005
      -0.000     +0.000     +0.106
      -0.000     -0.000     +0.036
      +0.000     +0.000     -0.093
      -0.000     +0.000     +0.979
vibration  4
      +0.103     -0.165     +0.000
      -0.050     +0.085     -0.000
      -0.085     -0.559     +0.000
      +0.166     +0.079     +0.000
      -0.142     +0.015     -0.000
      +0.540     -0.165     -0.000
      -0.151     -0.004     +0.000
      -0.193     +0.018     +0.000
      -0.154     -0.006     +0.000
      -0.158     -0.007     -0.000
      +0.265     +0.284     -0.000
vibration  5
      +0.000     -0.000     -0.050
      -0.000     +0.000     +0.198
      +0.000     -0.000     -0.458
      +0.000     +0.000     -0.068
      -0.000     +0.000     +0.047
      +0.000     -0.000     +0.082
      -0.000     +0.000     -0.024
      -0.000     -0.000     -0.429
      +0.000     -0.000     -0.596
      +0.000     -0.000     +0.442
      +0.000     +0.000     +0.002
vibration  6
      -0.186     -0.095     +0.000
      -0.165     -0.044     -0.000
      -0.211     -0.140     +0.000
      +0.108     -0.093     -0.000
      -0.001     +0.236     +0.000
      -0.141     -0.098     +0.000
      +0.157     +0.036     -0.000
      +0.108     +0.230     +0.000
      -0.046     -0.372     -0.000
      +0.636     +0.033     +0.000
      +0.265     +0.225     -0.000
vibration  7
      -0.000     -0.000     +0.020
      -0.000     +0.000     -0.127
      -0.000     -0.000     -0.561
      +0.000     +0.000     +0.070
      +0.000     -0.000     +0.008
      +0.000     -0.000     +0.809
      +0.000     -0.000     -0.002
      +0.000     -0.000     -0.045
      +0.000     +0.000     -0.052
      -0.000     -0.000     +0.016
      +0.000     +0.000     -0.066
vibration  8
      +0.000     +0.000     +0.010
      +0.000     -0.000     +0.190
      +0.000     +0.000     -0.570
      +0.000     -0.000     -0.015
      -0.000     +0.000     -0.182
      +0.000     +0.000     +0.054
      -0.000     -0.000     +0.007
      -0.000     +0.000     +0.145
      -0.000     -0.000     +0.680
      +0.000     +0.000     -0.343
      -0.000     -0.000     -0.031
vibration  9
      +0.189     +0.081     -0.000
      +0.136     -0.004     -0.000
      +0.321     +0.345     +0.000
      -0.004     -0.206     +0.000
      -0.183     +0.188     +0.000
      -0.030     +0.091     +0.000
      -0.136     +0.016     -0.000
      -0.200     +0.197     -0.000
      -0.360     -0.412     -0.000
      +0.319     +0.010     +0.000
      -0.045     -0.309     +0.000
vibration  10
      -0.000     +0.000     +0.177
      -0.000     +0.000     -0.094
      +0.000     -0.000     -0.658
      -0.000     -0.000     +0.009
      +0.000     -0.000     +0.016
      +0.000     +0.000     -0.705
      +0.000     +0.000     +0.005
      -0.000     -0.000     +0.071
      +0.000     +0.000     -0.139
      +0.000     -0.000     +0.076
      +0.000     +0.000     -0.016
vibration  11
      -0.023     +0.163     -0.000
      -0.051     +0.129     +0.000
      -0.313     -0.452     +0.000
      -0.028     -0.187     +0.000
      +0.027     -0.017     +0.000
      +0.682     +0.171     +0.000
      +0.057     -0.016     +0.000
      -0.106     -0.016     -0.000
      +0.173     +0.210     +0.000
      -0.164     -0.009     -0.000
      +0.063     -0.023     +0.000
vibration  12
      -0.000     +0.000     -0.007
      +0.000     -0.000     -0.001
      -0.000     -0.000     +0.014
      -0.000     +0.000     +0.000
      +0.000     -0.000     -0.016
      +0.000     +0.000     +0.037
      -0.000     +0.000     -0.115
      +0.000     -0.000     +0.500
      -0.000     -0.000     +0.279
      +0.000     -0.000     +0.811
      -0.000     -0.000     +0.011
vibration  13
      -0.000     +0.000     -0.016
      +0.000     -0.000     +0.020
      -0.001     -0.001     +0.020
      +0.000     +0.000     +0.000
      +0.000     -0.000     -0.126
      +0.001     +0.000     +0.073
      -0.000     +0.000     +0.114
      +0.001     -0.000     +0.727
      -0.001     -0.001     -0.657
      +0.001     +0.000     -0.065
      -0.000     -0.001     +0.001
vibration  14
      -0.042     +0.065     +0.000
      +0.028     -0.046     -0.000
      -0.203     -0.273     -0.000
      +0.013     +0.050     -0.000
      +0.030     -0.074     +0.000
      +0.294     +0.062     -0.000
      -0.075     +0.067     -0.000
      +0.450     -0.076     -0.002
      -0.305     -0.390     +0.002
      +0.428     +0.056     +0.000
      -0.171     -0.312     -0.000
vibration  15
      +0.068     +0.001     -0.000
      -0.057     +0.056     +0.000
      +0.174     +0.204     +0.000
      -0.070     -0.050     -0.000
      +0.051     -0.087     +0.000
      -0.008     +0.009     -0.000
      -0.042     +0.037     +0.000
      +0.306     -0.091     -0.000
      -0.157     -0.195     +0.000
      +0.212     +0.029     -0.000
      +0.341     +0.755     -0.000
vibration  16
      -0.002     -0.026     -0.000
      +0.001     +0.058     +0.000
      -0.019     -0.043     -0.000
      +0.008     -0.012     +0.000
      +0.008     -0.123     -0.000
      -0.168     -0.031     +0.000
      +0.025     +0.120     +0.000
      -0.791     -0.131     +0.000
      -0.008     +0.020     +0.000
      +0.514     +0.127     +0.000
      -0.033     -0.090     +0.000
vibration  17
      -0.041     +0.082     +0.000
      +0.139     -0.239     +0.000
      -0.174     -0.235     -0.000
      -0.058     +0.045     -0.000
      +0.005     +0.048     +0.000
      +0.276     +0.073     +0.000
      +0.010     +0.020     +0.000
      -0.525     +0.051     +0.000
      -0.088     -0.155     -0.000
      -0.136     +0.017     -0.000
      +0.230     +0.599     -0.000
vibration  18
      -0.013     -0.019     +0.000
      +0.052     +0.098     +0.000
      -0.186     -0.329     -0.000
      -0.001     -0.028     +0.000
      +0.113     +0.021     +0.000
      -0.469     -0.035     -0.000
      -0.020     +0.010     +0.000
      -0.122     +0.032     -0.000
      -0.307     -0.510     -0.000
      -0.488     -0.001     -0.000
      +0.006     -0.019     +0.000
vibration  19
      +0.023     +0.025     +0.000
      +0.092     +0.017     -0.000
      -0.248     -0.505     -0.000
      -0.020     -0.010     +0.000
      -0.062     +0.008     +0.000
      -0.523     +0.008     -0.000
      -0.034     -0.038     -0.000
      +0.244     +0.013     -0.000
      +0.191     +0.386     +0.000
      +0.338     -0.036     +0.000
      +0.076     +0.166     -0.000
vibration  20
      -0.228     -0.125     -0.000
      +0.209     +0.132     +0.000
      +0.002     +0.422     +0.000
      -0.016     -0.027     +0.000
      +0.206     +0.088     +0.000
      +0.421     -0.150     -0.000
      -0.226     -0.118     -0.000
      -0.151     +0.129     -0.000
      -0.004     +0.380     +0.000
      +0.401     -0.152     +0.000
      +0.049     +0.079     -0.000
vibration  21
      +0.204     +0.125     +0.000
      -0.302     -0.154     +0.000
      +0.047     -0.283     -0.000
      +0.032     +0.030     -0.000
      +0.314     +0.115     +0.000
      -0.255     +0.158     -0.000
      -0.221     -0.124     -0.000
      -0.431     +0.140     +0.000
      -0.033     +0.315     +0.000
      +0.325     -0.170     +0.000
      -0.089     -0.170     +0.000
vibration  22
      -0.021     -0.007     -0.000
      +0.003     +0.002     +0.000
      +0.231     -0.116     +0.000
      -0.000     -0.000     -0.000
      -0.005     +0.026     -0.000
      -0.006     +0.176     +0.000
      +0.060     +0.014     +0.000
      +0.001     -0.353     +0.000
      -0.656     +0.345     -0.000
      +0.006     -0.472     -0.000
      -0.000     -0.002     -0.000
vibration  23
      +0.066     +0.016     +0.000
      -0.007     -0.005     -0.000
      -0.722     +0.359     -0.000
      -0.000     -0.000     -0.000
      -0.003     +0.003     -0.000
      +0.017     -0.492     -0.000
      +0.022     +0.006     +0.000
      -0.001     -0.053     +0.000
      -0.230     +0.122     -0.000
      +0.002     -0.179     -0.000
      -0.001     +0.004     -0.000
vibration  24
      -0.006     +0.003     -0.000
      -0.002     -0.000     +0.000
      +0.075     -0.034     +0.000
      -0.000     +0.000     +0.000
      -0.006     -0.082     +0.000
      -0.000     -0.004     -0.000
      +0.024     +0.022     +0.000
      +0.003     +0.917     -0.000
      -0.191     +0.099     -0.000
      +0.003     -0.312     -0.000
      -0.001     +0.000     +0.000
vibration  25
      +0.036     -0.088     -0.000
      +0.003     -0.002     -0.000
      -0.453     +0.211     -0.000
      +0.000     +0.001     -0.000
      -0.001     -0.002     +0.000
      -0.001     +0.836     +0.000
      -0.008     +0.019     +0.000
      -0.002     +0.020     -0.000
      +0.103     -0.052     +0.000
      -0.002     -0.168     -0.000
      +0.001     +0.004     -0.000
vibration  26
      -0.007     +0.018     +0.000
      +0.001     +0.001     -0.000
      +0.092     -0.043     +0.000
      -0.000     -0.000     -0.000
      -0.001     +0.013     -0.000
      +0.000     -0.171     -0.000
      -0.039     +0.086     +0.000
      -0.003     -0.148     +0.000
      +0.495     -0.250     +0.000
      -0.011     -0.788     -0.000
      -0.001     -0.003     -0.000
vibration  27
      +0.001     -0.001     +0.000
      -0.003     -0.001     +0.000
      -0.000     +0.002     -0.000
      -0.055     +0.030     -0.000
      +0.001     -0.000     -0.000
      -0.001     -0.001     +0.000
      +0.000     -0.000     -0.000
      -0.001     +0.001     +0.000
      -0.000     +0.000     -0.000
      +0.000     -0.000     +0.000
      +0.889     -0.454     +0.000
