[Molden Format]
[FR-COORD] # Coordinates in bohr
  C    -3.116206    -1.416505    -0.017116 
  C    -0.967566    -0.160060    +0.005136 
  H    -4.888930    -0.447374    -0.127985 
  O    -0.925419    +2.484486    -0.136776 
  C    +1.526399    -1.371985    +0.104691 
  H    -3.142804    -3.439461    +0.037608 
  C    +3.663158    -0.099024    -0.035137 
  H    +1.518158    -3.393052    +0.280533 
  H    +5.462178    -1.028302    +0.031512 
  H    +3.664111    +1.913646    -0.252397 
  H    -1.092040    +3.250907    +1.515947 
[FREQ] # Frequencies in cm^-1
 -261.2031
  190.1688
  307.6517
  480.9616
  509.6540
  646.5495
  784.1586
  854.4850
  870.4753
 1043.0614
 1094.1659
 1134.9956
 1171.2160
 1178.1655
 1311.2234
 1450.3271
 1463.9344
 1576.6409
 1611.7277
 1818.5062
 1883.7150
 3334.6226
 3346.6256
 3354.3533
 3422.9637
 3430.3958
 3847.2498
[FR-NORM-COORD] # Displacements in bohr
vibration  1
      -0.005     +0.001     +0.037
      -0.002     +0.002     -0.005
      -0.018     -0.020     +0.029
      +0.075     -0.002     -0.000
      -0.004     -0.004     -0.044
      +0.001     +0.003     +0.093
      -0.005     +0.002     +0.015
      -0.010     -0.011     -0.132
      -0.006     -0.006     -0.022
      -0.012     +0.012     +0.122
      -0.964     +0.033     -0.126
vibration  2
      +0.007     -0.004     -0.147
      +0.000     +0.003     +0.073
      +0.012     -0.014     -0.329
      +0.026     +0.003     +0.073
      +0.000     +0.012     +0.210
      +0.010     -0.004     -0.158
      -0.010     -0.014     -0.184
      +0.006     +0.042     +0.555
      -0.005     -0.003     -0.156
      -0.036     -0.052     -0.536
      -0.360     +0.012     +0.029
vibration  3
      -0.113     +0.070     -0.005
      -0.003     -0.123     +0.002
      -0.009     +0.263     -0.011
      +0.215     -0.123     -0.001
      +0.013     -0.073     +0.008
      -0.324     +0.073     -0.006
      -0.154     +0.218     -0.002
      +0.195     -0.069     +0.021
      -0.011     +0.498     -0.002
      -0.475     +0.210     -0.030
      +0.273     -0.113     +0.000
vibration  4
      -0.097     +0.172     -0.002
      +0.055     -0.093     +0.006
      +0.129     +0.589     -0.038
      -0.178     -0.087     -0.002
      +0.144     -0.020     +0.004
      -0.549     +0.182     +0.001
      +0.150     +0.002     -0.004
      +0.197     -0.023     +0.011
      +0.155     +0.008     -0.003
      +0.152     +0.006     +0.000
      -0.259     -0.114     +0.002
vibration  5
      -0.013     -0.002     +0.054
      -0.006     -0.006     -0.219
      -0.035     -0.005     +0.365
      +0.011     +0.009     +0.062
      -0.001     +0.014     -0.027
      -0.005     -0.003     +0.027
      +0.012     -0.001     +0.016
      -0.003     +0.055     +0.451
      +0.005     +0.024     +0.559
      +0.032     -0.050     -0.447
      -0.080     -0.228     +0.164
vibration  6
      +0.192     +0.090     +0.011
      +0.164     +0.044     -0.033
      +0.219     +0.133     +0.032
      -0.124     +0.090     -0.003
      +0.007     -0.246     +0.009
      +0.166     +0.094     +0.034
      -0.157     -0.038     +0.007
      -0.110     -0.237     +0.035
      +0.061     +0.402     +0.009
      -0.670     -0.038     -0.024
      -0.154     +0.005     +0.037
vibration  7
      -0.001     +0.001     -0.013
      -0.005     +0.005     +0.137
      -0.022     +0.015     +0.435
      -0.002     -0.011     -0.032
      +0.007     -0.017     -0.075
      +0.020     -0.018     -0.705
      +0.004     -0.002     +0.007
      +0.012     +0.001     +0.134
      +0.018     +0.049     +0.335
      -0.019     -0.021     -0.178
      -0.043     +0.292     -0.179
vibration  8
      -0.210     -0.090     -0.007
      -0.146     -0.009     -0.018
      -0.367     -0.361     +0.052
      +0.018     +0.235     -0.011
      +0.191     -0.187     +0.035
      -0.000     -0.104     +0.018
      +0.145     -0.014     +0.000
      +0.239     -0.199     -0.001
      +0.358     +0.386     -0.126
      -0.293     -0.002     +0.055
      +0.022     +0.126     +0.051
vibration  9
      -0.007     -0.005     -0.002
      -0.009     +0.005     +0.111
      +0.016     -0.037     -0.637
      -0.002     +0.010     +0.014
      +0.006     -0.019     -0.142
      -0.001     +0.006     +0.417
      +0.007     +0.000     +0.004
      +0.013     +0.001     +0.098
      +0.019     +0.062     +0.537
      -0.008     -0.030     -0.276
      +0.033     +0.066     -0.010
vibration  10
      +0.031     -0.157     +0.018
      +0.059     -0.144     +0.020
      +0.355     +0.451     -0.029
      +0.020     +0.192     -0.024
      -0.035     +0.025     -0.006
      -0.637     -0.150     -0.105
      -0.063     +0.015     -0.004
      +0.083     +0.026     +0.017
      -0.186     -0.221     +0.040
      +0.166     +0.010     +0.016
      -0.021     -0.057     +0.104
vibration  11
      +0.010     -0.015     -0.167
      +0.003     -0.004     +0.059
      -0.007     +0.052     +0.669
      -0.002     +0.002     +0.005
      -0.001     +0.001     +0.004
      -0.082     +0.011     +0.681
      -0.004     +0.001     -0.004
      +0.010     -0.009     -0.111
      -0.012     -0.007     +0.093
      +0.011     -0.008     -0.077
      +0.014     +0.127     -0.053
vibration  12
      +0.000     +0.008     -0.011
      +0.001     -0.001     +0.003
      -0.017     -0.020     +0.037
      -0.001     -0.000     -0.002
      +0.002     -0.008     -0.005
      +0.031     +0.009     +0.049
      -0.009     -0.007     -0.124
      +0.033     +0.030     +0.431
      -0.011     +0.021     +0.338
      +0.051     +0.092     +0.815
      +0.013     -0.029     +0.013
vibration  13
      +0.002     +0.000     -0.021
      -0.000     +0.000     +0.019
      +0.000     +0.003     +0.039
      -0.001     -0.000     +0.002
      -0.000     -0.012     -0.126
      -0.000     +0.004     +0.099
      -0.001     +0.010     +0.101
      +0.017     +0.065     +0.758
      -0.016     -0.069     -0.614
      +0.003     +0.001     +0.014
      +0.001     +0.018     -0.007
vibration  14
      +0.015     -0.075     +0.005
      -0.023     +0.042     -0.013
      +0.166     +0.214     -0.021
      +0.016     -0.032     +0.012
      -0.037     +0.089     -0.008
      -0.308     -0.065     +0.007
      +0.086     -0.073     -0.003
      -0.507     +0.097     +0.044
      +0.335     +0.423     -0.031
      -0.460     -0.050     +0.082
      +0.031     +0.101     -0.053
vibration  15
      -0.016     +0.047     -0.022
      +0.030     -0.064     +0.100
      -0.119     -0.136     +0.118
      +0.007     +0.039     -0.074
      -0.030     +0.054     -0.017
      +0.179     +0.038     -0.051
      +0.027     -0.023     +0.006
      -0.176     +0.056     -0.016
      +0.087     +0.102     +0.015
      -0.139     -0.023     -0.032
      -0.071     -0.828     +0.351
vibration  16
      +0.082     -0.080     -0.003
      -0.180     +0.252     +0.041
      +0.312     +0.375     +0.058
      +0.018     -0.052     -0.042
      +0.029     -0.135     +0.005
      -0.240     -0.058     -0.046
      +0.002     +0.057     -0.003
      +0.094     -0.146     +0.001
      +0.017     +0.054     +0.007
      +0.377     +0.058     -0.034
      -0.045     -0.576     +0.209
vibration  17
      +0.021     -0.003     +0.000
      -0.053     +0.023     +0.002
      +0.106     +0.151     +0.004
      +0.004     -0.006     -0.004
      -0.001     +0.090     -0.008
      +0.088     +0.004     +0.000
      -0.025     -0.109     +0.009
      +0.852     +0.093     -0.019
      +0.015     -0.003     +0.006
      -0.427     -0.112     +0.022
      -0.004     -0.057     +0.020
vibration  18
      +0.001     -0.011     +0.001
      +0.064     +0.099     +0.008
      -0.245     -0.428     +0.001
      -0.002     -0.024     -0.007
      +0.090     +0.019     -0.005
      -0.599     -0.015     -0.031
      -0.025     +0.002     -0.001
      -0.049     +0.030     +0.001
      -0.244     -0.389     +0.049
      -0.378     -0.006     +0.013
      +0.006     -0.107     +0.034
vibration  19
      -0.023     -0.014     -0.002
      -0.066     -0.022     +0.000
      +0.194     +0.374     +0.005
      +0.004     +0.003     -0.001
      +0.092     +0.001     -0.000
      +0.428     -0.012     +0.018
      +0.024     +0.040     -0.006
      -0.312     -0.000     +0.002
      -0.269     -0.505     +0.057
      -0.439     +0.035     +0.013
      +0.005     -0.000     +0.002
vibration  20
      +0.211     +0.110     +0.005
      -0.173     -0.125     -0.009
      -0.004     -0.362     -0.000
      +0.002     +0.021     +0.005
      -0.250     -0.102     +0.013
      -0.359     +0.151     -0.014
      +0.255     +0.133     -0.016
      +0.207     -0.147     +0.014
      +0.016     -0.410     +0.040
      -0.431     +0.171     +0.000
      +0.012     +0.084     -0.024
vibration  21
      -0.252     -0.150     -0.004
      +0.326     +0.193     +0.007
      -0.034     +0.359     +0.002
      -0.013     -0.026     -0.004
      -0.279     -0.102     +0.009
      +0.308     -0.208     +0.011
      +0.190     +0.109     -0.013
      +0.393     -0.124     +0.017
      +0.021     -0.282     +0.032
      -0.293     +0.149     -0.004
      -0.016     -0.074     +0.017
vibration  22
      +0.006     +0.006     +0.000
      -0.002     -0.001     +0.000
      -0.059     +0.034     -0.004
      +0.000     +0.000     -0.000
      +0.004     -0.040     +0.003
      -0.000     -0.095     +0.003
      -0.055     -0.016     +0.003
      +0.001     +0.506     -0.044
      +0.615     -0.324     +0.024
      -0.005     +0.487     -0.052
      -0.000     +0.001     +0.000
vibration  23
      -0.056     -0.037     -0.001
      +0.009     +0.005     +0.000
      +0.563     -0.313     +0.036
      +0.000     +0.000     -0.000
      +0.003     +0.016     -0.001
      +0.004     +0.701     -0.020
      -0.016     -0.009     +0.001
      -0.000     -0.172     +0.015
      +0.149     -0.079     +0.006
      -0.001     +0.169     -0.018
      -0.001     -0.002     +0.001
vibration  24
      +0.017     +0.008     +0.001
      -0.000     -0.001     -0.000
      -0.184     +0.099     -0.012
      +0.000     -0.000     +0.000
      +0.007     +0.073     -0.006
      -0.001     -0.185     +0.005
      -0.030     -0.026     +0.003
      -0.004     -0.819     +0.071
      +0.258     -0.134     +0.010
      -0.003     +0.390     -0.041
      +0.000     +0.001     +0.000
vibration  25
      -0.004     +0.007     -0.000
      -0.001     -0.001     +0.000
      +0.056     -0.029     +0.004
      +0.001     +0.000     +0.000
      +0.001     -0.013     +0.001
      -0.001     -0.056     +0.002
      +0.045     -0.085     +0.008
      +0.004     +0.135     -0.012
      -0.558     +0.280     -0.020
      +0.011     +0.754     -0.080
      -0.001     +0.000     -0.001
vibration  26
      +0.052     -0.084     +0.005
      +0.001     -0.003     +0.000
      -0.641     +0.338     -0.040
      -0.000     +0.001     -0.000
      -0.001     -0.004     +0.000
      +0.018     +0.674     -0.018
      +0.004     -0.007     +0.001
      -0.001     +0.044     -0.004
      -0.046     +0.023     -0.002
      +0.001     +0.061     -0.007
      +0.002     +0.002     +0.000
vibration  27
      -0.000     -0.001     -0.000
      -0.000     -0.001     +0.002
      -0.000     +0.001     +0.002
      -0.006     +0.029     +0.055
      +0.000     -0.000     +0.000
      -0.000     -0.000     -0.002
      -0.000     +0.000     +0.000
      +0.000     -0.001     +0.000
      +0.001     -0.001     +0.000
      -0.001     -0.000     +0.000
      +0.093     -0.440     -0.891
