[Molden Format]
[FR-COORD] # Coordinates in bohr
  C    +0.960336    +2.985916    -0.550482 
  C    +0.840443    +0.506608    -0.603890 
  H    -0.729031    +4.095918    -0.505038 
  C    -1.603339    -0.945697    -0.552870 
  O    +2.880606    -1.111471    -0.668877 
  H    +2.722231    +3.989082    -0.523218 
  F    -2.671756    -0.930943    +1.882974 
  H    -2.948616    -0.107466    -1.830091 
  H    -1.231484    -2.869188    -1.095559 
  H    +4.483725    -0.244021    -0.598414 
[FREQ] # Frequencies in cm^-1
  -90.5853
  270.1811
  419.6494
  436.9573
  510.7383
  704.3185
  802.2746
  919.3363
 1066.2976
 1071.3757
 1121.0059
 1151.1087
 1275.5440
 1383.9519
 1511.3275
 1571.7429
 1622.6400
 1691.2551
 1880.0896
 3279.5971
 3337.6242
 3337.9080
 3422.6517
 3900.0572
[FR-NORM-COORD] # Displacements in bohr
vibration  1
      -0.072     -0.058     +0.167
      +0.030     -0.058     +0.026
      -0.119     -0.135     +0.320
      +0.093     -0.173     +0.062
      +0.092     +0.026     -0.174
      -0.114     +0.016     +0.143
      -0.121     +0.199     -0.036
      +0.157     -0.464     -0.199
      +0.242     -0.244     +0.420
      +0.061     +0.090     -0.258
vibration  2
      +0.188     +0.076     -0.152
      +0.064     +0.072     +0.127
      +0.264     +0.187     -0.073
      +0.046     +0.027     +0.171
      +0.054     +0.053     -0.089
      +0.255     -0.030     -0.479
      -0.280     -0.170     +0.029
      +0.120     -0.005     +0.069
      +0.167     +0.062     +0.130
      +0.068     +0.064     -0.525
vibration  3
      -0.108     -0.112     -0.017
      +0.081     -0.118     +0.029
      -0.228     -0.293     -0.030
      -0.080     +0.130     -0.001
      +0.192     +0.017     -0.013
      -0.222     +0.085     -0.037
      -0.053     +0.015     +0.023
      +0.022     +0.536     +0.158
      -0.458     +0.132     -0.274
      +0.115     +0.178     -0.182
vibration  4
      -0.020     +0.009     +0.017
      -0.003     +0.008     +0.015
      -0.036     -0.011     -0.067
      +0.017     +0.002     -0.018
      -0.034     -0.025     +0.079
      -0.034     +0.030     +0.121
      +0.034     +0.008     -0.023
      +0.017     -0.007     -0.027
      +0.035     +0.006     -0.017
      -0.002     +0.002     -0.981
vibration  5
      +0.140     -0.089     +0.031
      -0.110     -0.065     -0.105
      +0.362     +0.238     -0.017
      -0.142     -0.085     -0.041
      +0.070     +0.165     +0.045
      +0.341     -0.436     +0.211
      -0.000     +0.010     +0.033
      -0.195     -0.098     +0.006
      -0.193     -0.108     -0.003
      -0.080     +0.459     -0.165
vibration  6
      +0.008     +0.106     +0.044
      +0.105     +0.081     -0.405
      -0.126     -0.084     -0.023
      -0.009     +0.021     +0.043
      +0.075     -0.087     +0.060
      -0.118     +0.307     +0.697
      -0.116     -0.051     +0.102
      -0.147     -0.151     +0.076
      +0.020     -0.008     +0.174
      +0.142     -0.200     -0.018
vibration  7
      -0.001     -0.001     +0.015
      +0.001     +0.002     -0.082
      -0.002     -0.032     +0.775
      -0.006     +0.003     +0.000
      +0.003     -0.004     +0.059
      -0.004     +0.022     -0.618
      +0.003     -0.000     -0.013
      -0.017     -0.001     +0.010
      -0.007     +0.006     -0.015
      -0.002     +0.015     -0.058
vibration  8
      -0.032     -0.228     -0.018
      -0.039     -0.108     -0.155
      +0.021     -0.174     +0.082
      +0.309     +0.189     +0.150
      -0.171     +0.128     +0.016
      +0.050     -0.393     +0.306
      -0.031     -0.020     -0.032
      +0.389     +0.272     +0.128
      +0.216     +0.205     +0.045
      -0.217     +0.189     +0.063
vibration  9
      -0.065     +0.003     +0.161
      -0.061     +0.009     -0.073
      +0.090     +0.265     -0.631
      +0.029     +0.059     +0.028
      +0.056     -0.053     +0.003
      +0.075     -0.213     -0.631
      +0.000     -0.006     -0.012
      -0.019     -0.048     +0.007
      +0.107     +0.065     +0.062
      +0.009     +0.043     -0.008
vibration  10
      -0.130     +0.054     -0.096
      -0.111     +0.023     +0.031
      +0.204     +0.540     +0.405
      +0.035     +0.045     +0.041
      +0.110     -0.104     -0.006
      +0.174     -0.470     +0.403
      +0.009     +0.000     -0.025
      +0.038     +0.032     +0.030
      +0.081     +0.066     +0.004
      +0.053     +0.018     +0.010
vibration  11
      +0.038     -0.062     -0.022
      -0.044     -0.010     +0.034
      -0.097     -0.266     +0.069
      -0.083     +0.173     -0.016
      +0.041     -0.029     -0.005
      -0.084     +0.135     +0.066
      +0.024     -0.029     -0.008
      -0.220     -0.463     -0.288
      +0.464     +0.154     +0.419
      -0.107     +0.252     +0.011
vibration  12
      +0.060     +0.043     +0.007
      -0.007     +0.002     -0.046
      -0.062     -0.123     -0.086
      -0.175     -0.043     +0.451
      +0.007     -0.007     +0.000
      -0.083     +0.290     +0.140
      +0.110     -0.009     -0.307
      -0.146     +0.060     +0.470
      -0.402     -0.051     +0.304
      -0.039     +0.082     +0.055
vibration  13
      -0.068     -0.052     -0.001
      +0.108     +0.004     +0.004
      +0.055     +0.112     +0.011
      -0.079     +0.047     +0.005
      -0.019     +0.093     +0.005
      +0.106     -0.357     -0.016
      +0.015     -0.017     -0.014
      -0.045     -0.142     -0.160
      -0.030     -0.024     +0.291
      +0.401     -0.716     -0.040
vibration  14
      -0.012     +0.042     +0.003
      +0.034     -0.024     -0.008
      +0.050     +0.144     +0.005
      -0.010     +0.022     -0.012
      -0.021     -0.018     -0.001
      -0.005     +0.046     -0.012
      +0.015     -0.028     +0.011
      +0.459     +0.110     -0.460
      -0.443     -0.189     +0.470
      -0.152     +0.238     +0.014
vibration  15
      +0.081     -0.014     +0.003
      -0.236     +0.024     -0.019
      -0.097     -0.265     -0.013
      -0.004     -0.014     +0.029
      +0.065     +0.022     +0.003
      -0.078     +0.225     +0.009
      +0.009     -0.001     +0.013
      +0.497     +0.242     -0.339
      +0.056     +0.032     -0.059
      +0.333     -0.503     -0.027
vibration  16
      -0.032     -0.003     +0.003
      +0.095     -0.007     -0.028
      +0.039     +0.100     -0.017
      -0.128     -0.046     +0.075
      -0.022     -0.005     +0.001
      +0.021     -0.081     +0.018
      +0.010     +0.011     +0.011
      +0.420     +0.140     -0.388
      +0.559     +0.222     -0.447
      -0.105     +0.160     +0.017
vibration  17
      +0.001     +0.031     +0.002
      +0.007     +0.112     +0.002
      -0.388     -0.579     -0.023
      -0.005     -0.018     +0.005
      +0.007     -0.026     -0.001
      +0.337     -0.587     -0.018
      +0.001     -0.001     -0.000
      +0.055     +0.014     -0.049
      -0.118     -0.034     -0.005
      -0.064     +0.125     +0.006
vibration  18
      +0.002     +0.003     -0.001
      -0.003     -0.008     +0.004
      +0.013     +0.019     +0.002
      +0.040     +0.041     +0.059
      -0.000     +0.003     +0.000
      -0.011     +0.028     +0.005
      -0.000     +0.001     +0.006
      -0.028     -0.621     -0.338
      -0.447     +0.096     -0.531
      +0.015     -0.026     +0.000
vibration  19
      -0.025     -0.388     -0.011
      +0.033     +0.466     +0.011
      +0.454     +0.224     +0.007
      -0.011     -0.053     +0.002
      +0.018     -0.054     -0.002
      -0.445     +0.213     +0.017
      +0.001     -0.001     +0.000
      +0.073     +0.057     -0.040
      -0.261     -0.093     +0.010
      -0.077     +0.175     +0.007
vibration  20
      +0.000     -0.002     +0.000
      +0.001     +0.001     +0.000
      -0.020     +0.012     -0.000
      -0.040     -0.012     -0.054
      +0.000     -0.000     -0.000
      +0.018     +0.009     -0.000
      +0.000     +0.000     -0.000
      +0.560     -0.363     +0.518
      -0.107     +0.503     +0.126
      -0.000     +0.001     -0.001
vibration  21
      -0.012     -0.039     -0.001
      -0.001     +0.007     +0.000
      -0.264     +0.165     +0.006
      -0.033     +0.071     -0.006
      +0.000     -0.000     -0.000
      +0.407     +0.230     +0.007
      +0.000     -0.000     +0.000
      +0.278     -0.166     +0.256
      +0.122     -0.676     -0.182
      +0.003     -0.002     -0.001
vibration  22
      +0.021     +0.057     +0.002
      -0.000     -0.007     -0.000
      +0.369     -0.233     -0.009
      -0.024     +0.047     -0.006
      +0.000     -0.000     -0.000
      -0.617     -0.351     -0.009
      +0.000     -0.000     -0.000
      +0.205     -0.125     +0.189
      +0.080     -0.431     -0.117
      -0.002     +0.001     -0.000
vibration  23
      -0.095     +0.019     +0.001
      -0.003     -0.001     +0.000
      +0.702     -0.474     -0.018
      -0.001     +0.002     -0.001
      +0.001     -0.001     -0.000
      +0.447     +0.268     +0.008
      +0.000     -0.000     -0.000
      +0.013     -0.006     +0.010
      +0.002     -0.009     -0.001
      +0.003     -0.003     -0.000
vibration  24
      +0.001     +0.000     +0.000
      -0.001     -0.003     -0.000
      -0.000     -0.001     +0.000
      +0.001     +0.000     -0.000
      -0.056     -0.027     -0.002
      -0.002     +0.001     -0.000
      -0.000     +0.000     +0.000
      -0.001     -0.000     +0.000
      +0.001     +0.001     +0.001
      +0.886     +0.457     +0.038
