[Molden Format]
[FR-COORD] # Coordinates in bohr
  C    +1.074061    +2.839462    +0.573224 
  C    +0.891654    +0.370731    +0.574314 
  H    -0.578779    +4.007941    +0.558231 
  C    -1.603152    -1.004521    +0.475931 
  O    +3.041639    -1.150210    +0.750865 
  H    +2.884455    +3.741209    +0.601632 
  F    -2.867311    -0.538917    -1.820851 
  H    -1.279845    -3.007549    +0.661690 
  H    -2.822292    -0.387216    +1.987197 
  H    +3.257813    -2.203234    -0.731250 
[FREQ] # Frequencies in cm^-1
 -115.9485
  198.0965
  269.9120
  424.2280
  497.3487
  659.8945
  825.9915
  910.5220
 1056.0962
 1112.2756
 1121.5201
 1147.8636
 1323.8235
 1345.0090
 1429.2670
 1549.6877
 1596.9433
 1695.2077
 1901.3264
 3265.1387
 3310.0461
 3349.2384
 3434.7888
 3833.0491
[FR-NORM-COORD] # Displacements in bohr
vibration  1
      +0.069     +0.047     +0.160
      -0.025     +0.052     +0.040
      +0.116     +0.116     +0.340
      -0.084     +0.160     +0.098
      -0.057     -0.016     -0.172
      +0.106     -0.027     +0.090
      +0.095     -0.187     -0.078
      -0.197     +0.177     +0.469
      -0.158     +0.494     -0.102
      -0.273     -0.077     -0.158
vibration  2
      -0.020     -0.011     +0.014
      +0.009     -0.014     -0.011
      -0.033     -0.030     +0.066
      +0.006     -0.014     -0.014
      +0.038     +0.057     -0.022
      -0.027     -0.000     -0.017
      +0.002     +0.018     -0.000
      -0.032     -0.025     -0.027
      +0.020     -0.021     +0.000
      -0.507     -0.719     +0.455
vibration  3
      +0.237     +0.086     +0.159
      +0.057     +0.096     -0.135
      +0.351     +0.245     +0.114
      +0.057     +0.023     -0.183
      +0.011     +0.040     +0.114
      +0.326     -0.098     +0.471
      -0.293     -0.165     -0.024
      +0.224     +0.048     -0.192
      +0.148     -0.090     -0.061
      +0.101     -0.073     +0.209
vibration  4
      +0.074     +0.117     -0.029
      -0.074     +0.124     +0.053
      +0.173     +0.255     -0.035
      +0.098     -0.111     -0.007
      -0.205     -0.049     -0.039
      +0.155     -0.039     -0.098
      +0.090     -0.017     +0.042
      +0.446     -0.081     -0.284
      +0.002     -0.536     +0.091
      -0.399     -0.056     -0.063
vibration  5
      -0.152     +0.087     +0.036
      +0.132     +0.057     -0.124
      -0.412     -0.269     -0.010
      +0.143     +0.111     -0.034
      -0.066     -0.195     +0.031
      -0.369     +0.511     +0.218
      +0.003     -0.018     +0.035
      +0.138     +0.121     +0.068
      +0.232     +0.197     +0.003
      -0.067     -0.176     +0.015
vibration  6
      -0.002     -0.089     +0.055
      -0.115     -0.058     -0.421
      +0.146     +0.115     +0.243
      +0.009     -0.041     +0.055
      -0.135     +0.107     +0.039
      +0.123     -0.352     +0.428
      +0.142     +0.035     +0.100
      -0.076     -0.040     +0.207
      +0.169     +0.185     +0.095
      +0.382     -0.018     +0.212
vibration  7
      -0.001     +0.010     -0.001
      +0.007     +0.004     -0.025
      -0.015     +0.001     +0.732
      +0.010     +0.003     -0.000
      -0.009     -0.012     +0.033
      -0.005     +0.038     -0.649
      -0.011     +0.001     -0.018
      +0.034     +0.005     -0.043
      -0.005     -0.037     +0.005
      +0.167     -0.026     +0.069
vibration  8
      +0.040     +0.250     +0.002
      +0.040     +0.128     -0.162
      -0.008     +0.203     +0.063
      -0.311     -0.217     +0.142
      +0.165     -0.143     +0.021
      -0.037     +0.419     +0.234
      +0.035     +0.023     -0.029
      -0.218     -0.219     -0.004
      -0.384     -0.309     +0.126
      +0.127     -0.171     +0.027
vibration  9
      +0.164     -0.050     +0.005
      +0.144     -0.029     +0.009
      -0.251     -0.630     -0.033
      -0.058     -0.067     +0.047
      -0.146     +0.113     -0.021
      -0.175     +0.607     +0.013
      -0.008     +0.004     -0.026
      -0.099     -0.084     -0.012
      -0.063     -0.068     +0.043
      +0.084     +0.049     +0.074
vibration  10
      -0.012     +0.058     +0.107
      +0.034     +0.011     -0.010
      +0.064     +0.159     -0.403
      +0.055     -0.145     -0.036
      -0.031     +0.002     +0.003
      +0.047     -0.030     -0.508
      -0.016     +0.025     -0.001
      -0.360     -0.175     +0.333
      +0.186     +0.412     -0.159
      -0.048     +0.039     -0.025
vibration  11
      -0.005     +0.034     -0.140
      +0.032     +0.003     +0.070
      +0.037     +0.100     +0.576
      +0.044     -0.101     -0.046
      -0.021     +0.006     +0.007
      +0.011     -0.009     +0.535
      -0.012     +0.016     +0.008
      -0.287     -0.127     +0.243
      +0.113     +0.306     -0.154
      -0.162     +0.089     -0.076
vibration  12
      -0.055     -0.022     -0.012
      +0.020     +0.002     -0.038
      +0.061     +0.127     -0.016
      +0.227     -0.067     +0.433
      -0.022     +0.002     +0.001
      +0.069     -0.275     +0.223
      -0.140     +0.071     -0.295
      +0.394     -0.041     +0.345
      +0.189     -0.106     +0.404
      -0.011     -0.036     +0.029
vibration  13
      +0.044     -0.051     +0.015
      -0.057     +0.021     -0.081
      -0.086     -0.232     +0.070
      -0.003     -0.007     +0.003
      +0.060     +0.005     +0.070
      -0.033     +0.089     -0.107
      +0.001     +0.006     -0.004
      +0.075     +0.012     +0.077
      +0.043     +0.017     +0.030
      -0.783     +0.372     -0.351
vibration  14
      +0.057     -0.003     -0.002
      -0.133     +0.010     +0.010
      -0.077     -0.180     -0.014
      +0.047     -0.038     -0.025
      +0.031     -0.019     -0.015
      -0.062     +0.217     +0.022
      -0.016     +0.032     +0.012
      +0.467     +0.078     +0.527
      -0.365     +0.075     -0.414
      +0.208     -0.131     +0.094
vibration  15
      -0.084     -0.034     +0.006
      +0.220     +0.014     -0.035
      +0.037     +0.105     +0.009
      -0.047     -0.005     -0.002
      -0.039     +0.024     +0.013
      +0.120     -0.428     -0.030
      -0.007     +0.011     +0.022
      +0.312     +0.058     +0.218
      -0.591     -0.152     -0.388
      -0.195     +0.110     -0.072
vibration  16
      +0.016     +0.009     +0.004
      -0.042     -0.010     -0.033
      +0.013     +0.009     -0.015
      +0.130     +0.032     +0.073
      +0.007     -0.003     +0.005
      -0.030     +0.099     +0.016
      -0.011     -0.012     +0.012
      -0.558     -0.117     -0.401
      -0.538     -0.101     -0.417
      -0.034     +0.020     -0.020
vibration  17
      +0.012     +0.035     -0.003
      -0.021     +0.108     +0.010
      -0.425     -0.597     +0.006
      +0.005     -0.016     +0.000
      +0.009     -0.017     -0.007
      +0.299     -0.564     +0.010
      +0.001     -0.002     +0.001
      -0.137     -0.037     -0.053
      +0.034     +0.040     +0.006
      +0.107     -0.056     +0.039
vibration  18
      -0.001     -0.009     -0.001
      +0.000     +0.007     +0.004
      +0.010     +0.007     +0.002
      -0.035     -0.048     +0.055
      +0.000     +0.000     +0.000
      -0.009     +0.003     +0.005
      +0.000     -0.003     +0.005
      +0.405     -0.013     -0.584
      +0.020     +0.661     -0.225
      -0.011     -0.010     +0.005
vibration  19
      +0.034     +0.396     +0.002
      -0.016     -0.476     -0.017
      -0.457     -0.169     -0.003
      +0.006     +0.047     +0.007
      -0.016     +0.037     +0.016
      +0.421     -0.208     -0.006
      -0.001     +0.000     -0.000
      +0.271     +0.074     -0.020
      -0.039     -0.011     -0.020
      -0.215     +0.130     -0.095
vibration  20
      -0.000     +0.001     +0.000
      -0.001     -0.000     +0.000
      +0.012     -0.009     -0.001
      +0.030     +0.034     -0.049
      +0.000     -0.000     -0.000
      -0.012     -0.005     -0.001
      -0.000     -0.000     -0.001
      +0.115     -0.646     +0.041
      -0.449     +0.249     +0.547
      +0.002     +0.000     -0.001
vibration  21
      +0.001     -0.002     -0.000
      -0.001     +0.002     +0.000
      -0.019     +0.011     +0.001
      -0.042     +0.079     +0.035
      +0.000     -0.001     +0.000
      +0.007     +0.002     -0.000
      +0.000     -0.000     -0.000
      +0.111     -0.740     +0.063
      +0.398     -0.196     -0.479
      +0.004     +0.001     +0.000
vibration  22
      -0.001     +0.071     +0.000
      -0.001     -0.010     -0.000
      +0.611     -0.430     +0.005
      -0.002     +0.001     +0.002
      +0.000     -0.000     +0.000
      -0.593     -0.291     -0.009
      +0.000     -0.000     +0.000
      +0.002     -0.003     -0.000
      +0.018     -0.009     -0.020
      -0.001     +0.001     -0.002
vibration  23
      +0.099     -0.003     +0.001
      +0.003     -0.001     +0.000
      -0.530     +0.388     -0.004
      +0.000     -0.001     -0.000
      -0.001     +0.000     -0.000
      -0.664     -0.343     -0.010
      -0.000     +0.000     -0.000
      -0.001     +0.006     +0.000
      -0.005     +0.001     +0.004
      -0.001     +0.001     -0.000
vibration  24
      -0.000     +0.001     -0.000
      -0.002     -0.000     -0.002
      +0.000     -0.000     +0.002
      +0.000     +0.000     +0.000
      +0.010     -0.037     -0.049
      -0.000     +0.000     -0.002
      -0.000     +0.000     -0.000
      +0.001     +0.001     -0.000
      -0.000     +0.000     +0.000
      -0.137     +0.586     +0.796
