[Molden Format]
[FR-COORD] # Coordinates in bohr
  C    +2.053065    +2.469445    -0.128377 
  C    +0.992673    +0.242078    +0.176707 
  H    +4.023453    +2.655055    -0.573769 
  C    +2.373624    -2.252283    -0.074959 
  C    -1.754437    -0.004188    +0.814669 
  H    +1.000495    +4.195739    +0.045561 
  H    +4.358272    -1.948131    -0.463741 
  H    +2.208344    -3.358062    +1.646451 
  H    +1.560312    -3.345947    -1.607090 
  O    -3.442809    -0.226270    -0.709496 
  H    -2.148652    -0.025825    +2.829742 
[FREQ] # Frequencies in cm^-1
 -173.1786
  192.5520
  294.5248
  315.2422
  431.3031
  655.8876
  778.4875
  915.2479
 1019.1346
 1080.0542
 1119.8751
 1182.5899
 1206.7033
 1396.0745
 1545.3442
 1575.0913
 1611.0186
 1653.6515
 1662.9383
 1862.9889
 1907.7538
 3159.9166
 3190.0359
 3239.4299
 3276.3543
 3315.0048
 3389.5852
[FR-NORM-COORD] # Displacements in bohr
vibration  1
      +0.085     +0.008     +0.089
      -0.000     +0.037     +0.013
      +0.082     -0.048     +0.054
      -0.097     -0.003     -0.092
      -0.023     +0.202     +0.005
      +0.155     +0.044     +0.175
      -0.102     -0.059     -0.160
      -0.068     -0.026     -0.104
      -0.195     +0.053     -0.079
      +0.042     -0.233     -0.003
      -0.112     +0.827     -0.008
vibration  2
      -0.008     -0.003     +0.031
      -0.004     -0.009     +0.004
      -0.012     +0.006     +0.016
      +0.006     -0.003     +0.000
      -0.006     -0.007     -0.006
      -0.008     -0.007     +0.068
      -0.105     +0.009     -0.558
      +0.490     +0.249     +0.209
      -0.347     -0.256     +0.370
      +0.009     +0.017     -0.027
      -0.027     -0.021     -0.011
vibration  3
      +0.091     -0.053     +0.121
      -0.007     -0.057     -0.218
      +0.157     -0.071     +0.403
      +0.192     +0.016     +0.040
      -0.040     +0.064     -0.148
      +0.123     -0.035     +0.134
      +0.188     +0.185     +0.148
      +0.203     +0.172     +0.143
      +0.417     -0.226     +0.098
      -0.257     +0.001     +0.102
      +0.165     +0.315     -0.100
vibration  4
      +0.165     +0.091     +0.027
      +0.008     +0.147     -0.099
      +0.209     -0.051     +0.156
      -0.167     +0.041     +0.047
      +0.049     -0.120     -0.060
      +0.285     +0.164     +0.014
      -0.138     -0.177     +0.033
      -0.280     +0.184     +0.131
      -0.272     -0.000     +0.131
      -0.042     -0.089     +0.037
      +0.208     -0.612     -0.030
vibration  5
      -0.154     +0.103     +0.064
      +0.077     -0.036     -0.143
      -0.173     +0.471     +0.144
      -0.059     -0.134     +0.032
      +0.129     +0.035     -0.057
      -0.447     -0.083     +0.194
      -0.011     -0.364     +0.102
      -0.257     +0.027     +0.120
      -0.113     -0.186     +0.097
      +0.054     +0.021     +0.039
      +0.225     +0.186     -0.034
vibration  6
      -0.033     -0.092     +0.030
      -0.161     -0.032     -0.183
      -0.084     -0.264     -0.263
      -0.048     +0.094     +0.002
      +0.028     -0.002     +0.094
      +0.215     +0.003     +0.546
      -0.030     +0.264     +0.233
      -0.101     +0.327     +0.153
      +0.257     -0.226     +0.077
      +0.143     +0.018     -0.010
      +0.023     -0.002     +0.088
vibration  7
      +0.047     +0.088     -0.014
      +0.065     +0.043     +0.012
      -0.097     +0.144     -0.642
      +0.062     -0.098     -0.011
      -0.097     -0.008     +0.042
      +0.136     +0.086     +0.578
      +0.100     -0.202     +0.096
      -0.051     +0.035     +0.067
      +0.080     -0.182     +0.043
      -0.056     -0.007     -0.032
      -0.193     -0.071     +0.021
vibration  8
      +0.012     +0.105     -0.011
      -0.099     +0.084     -0.116
      +0.173     -0.020     +0.628
      +0.081     -0.178     -0.035
      -0.129     +0.035     +0.172
      +0.087     +0.196     -0.430
      +0.078     -0.102     -0.011
      +0.089     -0.116     +0.004
      +0.165     -0.245     -0.030
      +0.074     -0.005     -0.027
      -0.166     -0.176     +0.158
vibration  9
      +0.074     -0.041     -0.024
      +0.143     -0.079     -0.086
      +0.101     +0.336     +0.255
      -0.007     +0.157     -0.023
      -0.132     -0.119     +0.140
      -0.261     -0.238     -0.076
      +0.066     -0.290     +0.026
      -0.314     +0.311     +0.056
      -0.192     +0.109     +0.103
      -0.003     +0.025     -0.035
      -0.281     +0.350     +0.112
vibration  10
      -0.071     +0.057     +0.017
      -0.033     +0.025     +0.013
      -0.024     -0.467     -0.018
      +0.058     -0.003     -0.008
      +0.042     -0.146     -0.022
      +0.357     +0.322     -0.090
      +0.101     -0.332     -0.023
      -0.160     +0.046     +0.007
      -0.156     +0.058     +0.055
      -0.003     +0.038     +0.006
      -0.016     +0.569     -0.027
vibration  11
      -0.037     -0.007     -0.153
      +0.006     -0.001     +0.025
      +0.127     +0.013     +0.583
      +0.011     +0.003     +0.040
      +0.004     +0.002     -0.006
      +0.169     +0.031     +0.719
      -0.011     -0.016     -0.087
      +0.043     -0.151     -0.060
      -0.083     +0.164     -0.030
      -0.003     -0.001     +0.001
      -0.002     +0.003     -0.006
vibration  12
      +0.070     +0.066     -0.026
      -0.002     +0.014     +0.012
      +0.066     +0.283     +0.020
      -0.116     -0.059     +0.015
      +0.019     -0.149     +0.000
      -0.045     +0.001     +0.020
      -0.196     +0.563     +0.057
      +0.309     -0.123     +0.008
      +0.310     -0.183     -0.114
      -0.003     +0.031     -0.000
      -0.050     +0.498     -0.007
vibration  13
      +0.029     +0.005     +0.048
      -0.034     -0.003     -0.142
      -0.053     +0.063     -0.292
      +0.030     +0.002     +0.149
      -0.025     -0.020     +0.031
      -0.028     -0.025     +0.019
      -0.062     +0.003     -0.319
      +0.168     -0.548     -0.210
      -0.237     +0.548     -0.120
      +0.011     +0.005     -0.010
      +0.035     +0.061     +0.041
vibration  14
      -0.122     +0.088     +0.027
      +0.262     -0.148     -0.072
      -0.044     -0.509     +0.035
      -0.108     +0.022     +0.032
      -0.048     +0.058     +0.047
      +0.399     +0.405     -0.118
      -0.153     +0.331     +0.001
      +0.183     -0.038     +0.013
      +0.156     +0.022     -0.104
      -0.016     -0.015     -0.017
      -0.090     -0.217     +0.043
vibration  15
      -0.003     -0.001     -0.003
      +0.008     -0.002     +0.027
      -0.005     +0.011     -0.013
      -0.007     +0.011     -0.009
      -0.056     -0.003     +0.051
      +0.022     +0.014     +0.015
      +0.017     -0.048     +0.056
      +0.053     -0.028     -0.021
      +0.010     -0.055     +0.030
      -0.022     -0.004     -0.071
      +0.945     +0.106     +0.263
vibration  16
      -0.004     -0.010     +0.001
      +0.004     -0.005     -0.001
      -0.007     +0.060     -0.001
      +0.058     -0.109     -0.016
      -0.002     -0.001     +0.010
      +0.053     +0.028     -0.011
      -0.042     +0.537     +0.065
      -0.252     +0.421     +0.274
      -0.399     +0.429     -0.133
      -0.006     -0.000     -0.009
      +0.075     +0.012     +0.029
vibration  17
      -0.000     +0.000     +0.001
      -0.051     -0.109     +0.017
      -0.045     +0.639     -0.017
      +0.022     +0.036     -0.005
      +0.002     +0.013     -0.016
      +0.528     +0.356     -0.134
      +0.000     +0.071     -0.007
      -0.191     -0.136     -0.125
      -0.117     -0.146     +0.187
      +0.009     -0.001     +0.009
      +0.002     -0.048     -0.020
vibration  18
      +0.000     +0.002     +0.001
      -0.004     -0.004     -0.021
      +0.001     +0.006     +0.003
      -0.015     +0.007     -0.050
      +0.001     -0.000     -0.001
      +0.007     +0.006     +0.004
      +0.139     -0.042     +0.687
      +0.513     -0.114     -0.052
      -0.439     +0.079     +0.147
      +0.003     +0.001     +0.005
      -0.061     -0.006     -0.017
vibration  19
      +0.009     +0.029     -0.003
      +0.024     +0.014     -0.006
      +0.036     -0.259     +0.004
      +0.046     +0.013     -0.010
      +0.002     -0.003     +0.007
      -0.203     -0.112     +0.050
      -0.032     +0.416     +0.023
      -0.385     -0.345     -0.265
      -0.280     -0.345     +0.401
      -0.005     -0.000     -0.005
      -0.008     +0.008     +0.007
vibration  20
      -0.167     -0.333     +0.050
      +0.180     +0.364     -0.061
      -0.287     +0.404     +0.065
      -0.008     -0.031     +0.003
      +0.076     -0.023     +0.086
      +0.509     +0.033     -0.129
      -0.027     +0.144     +0.010
      +0.018     -0.191     -0.101
      +0.041     -0.177     +0.088
      -0.068     -0.002     -0.057
      -0.146     +0.095     +0.046
vibration  21
      +0.061     +0.110     -0.013
      -0.130     -0.139     -0.002
      +0.098     -0.031     +0.048
      +0.000     +0.021     +0.002
      +0.557     +0.080     +0.399
      -0.129     +0.014     -0.018
      +0.017     -0.134     +0.003
      +0.023     +0.051     +0.020
      +0.020     +0.054     -0.026
      -0.344     -0.047     -0.305
      -0.390     -0.066     +0.213
vibration  22
      -0.001     -0.001     +0.000
      +0.002     +0.000     +0.000
      +0.010     -0.002     -0.000
      -0.001     +0.003     -0.002
      -0.016     -0.001     +0.082
      -0.005     +0.008     +0.001
      +0.029     +0.008     -0.007
      -0.007     -0.034     +0.057
      -0.011     -0.015     -0.024
      -0.001     -0.000     -0.001
      +0.204     +0.009     -0.972
vibration  23
      +0.000     +0.001     -0.000
      -0.000     +0.000     -0.000
      -0.011     +0.000     +0.002
      -0.009     +0.049     -0.010
      +0.002     +0.000     -0.006
      +0.007     -0.009     -0.001
      +0.389     +0.074     -0.081
      -0.061     -0.379     +0.617
      -0.219     -0.277     -0.418
      -0.000     -0.000     -0.000
      -0.017     -0.001     +0.072
vibration  24
      -0.000     -0.000     -0.000
      +0.000     +0.000     -0.000
      +0.005     -0.000     -0.001
      -0.008     -0.003     -0.090
      +0.000     -0.000     -0.002
      -0.002     +0.002     -0.001
      -0.153     -0.025     +0.006
      -0.058     -0.349     +0.528
      +0.307     +0.407     +0.551
      +0.000     +0.000     +0.000
      -0.004     +0.000     +0.015
vibration  25
      +0.003     +0.001     -0.001
      -0.001     -0.002     +0.000
      -0.028     -0.000     +0.006
      -0.084     -0.035     +0.006
      +0.000     -0.000     -0.000
      +0.004     -0.002     -0.001
      +0.874     +0.141     -0.173
      -0.003     +0.107     -0.186
      +0.128     +0.186     +0.283
      +0.000     +0.000     +0.000
      -0.000     +0.000     +0.002
vibration  26
      -0.028     -0.064     +0.008
      +0.004     +0.008     -0.001
      +0.670     +0.053     -0.151
      -0.002     +0.000     +0.001
      +0.001     -0.000     -0.001
      -0.380     +0.609     +0.064
      +0.027     +0.003     -0.005
      +0.000     -0.003     +0.001
      -0.001     -0.003     -0.002
      -0.000     -0.000     -0.000
      -0.005     -0.000     +0.014
vibration  27
      +0.087     -0.043     -0.018
      +0.002     -0.001     -0.000
      -0.699     -0.074     +0.159
      +0.001     +0.001     -0.000
      -0.001     -0.000     +0.000
      -0.347     +0.589     +0.057
      -0.018     +0.001     +0.003
      -0.001     -0.002     +0.004
      -0.003     -0.003     -0.004
      -0.000     +0.000     -0.000
      -0.001     -0.001     -0.001
