[Molden Format]
[FR-COORD] # Coordinates in bohr
  C    +0.814417    +2.704546    -0.000000 
  C    +0.945658    +0.214571    -0.000000 
  H    +2.466288    +3.881107    +0.000000 
  C    +3.399864    -1.262502    +0.000000 
  C    -1.466155    -1.229005    -0.000000 
  H    -0.989887    +3.628878    -0.000000 
  H    +4.516676    -0.824010    +1.660184 
  H    +3.047039    -3.280880    -0.000006 
  H    +4.516682    -0.824001    -1.660177 
  O    -3.547543    -0.277484    +0.000000 
  H    -1.235981    -3.268711    -0.000001 
[FREQ] # Frequencies in cm^-1
 -148.3210
  161.8165
  328.4444
  420.4125
  482.4268
  637.0110
  788.4808
  927.3092
 1038.9835
 1139.0386
 1145.1617
 1160.5408
 1225.8947
 1394.6603
 1554.2229
 1584.9004
 1595.2154
 1663.7925
 1668.5335
 1830.1627
 1910.5244
 3172.1082
 3201.5711
 3257.5151
 3258.3152
 3325.4790
 3409.3188
[FR-NORM-COORD] # Displacements in bohr
vibration  1
      +0.000     +0.000     -0.045
      +0.000     +0.000     -0.013
      +0.000     +0.000     -0.084
      -0.000     -0.000     +0.009
      +0.000     +0.000     +0.025
      +0.000     +0.000     -0.034
      -0.269     -0.419     +0.304
      +0.000     +0.000     -0.553
      +0.269     +0.419     +0.304
      +0.000     -0.000     +0.019
      +0.000     -0.000     +0.051
vibration  2
      -0.000     -0.000     +0.055
      +0.000     -0.000     +0.078
      -0.000     +0.000     -0.072
      +0.000     +0.000     -0.127
      +0.000     -0.000     +0.250
      -0.000     -0.000     +0.166
      +0.114     -0.077     -0.183
      -0.000     +0.000     -0.200
      -0.114     +0.077     -0.183
      -0.000     +0.000     -0.215
      +0.000     -0.000     +0.830
vibration  3
      +0.223     +0.188     +0.000
      -0.014     +0.173     -0.000
      +0.358     +0.003     +0.000
      -0.164     -0.069     -0.000
      +0.047     +0.057     +0.000
      +0.330     +0.405     +0.000
      -0.112     -0.209     +0.001
      -0.398     -0.027     +0.000
      -0.112     -0.209     -0.001
      -0.091     -0.265     -0.000
      +0.300     +0.082     +0.000
vibration  4
      -0.193     +0.076     +0.000
      +0.061     +0.082     -0.000
      -0.378     +0.330     +0.000
      -0.102     -0.159     -0.000
      +0.135     +0.030     +0.000
      -0.342     -0.209     -0.000
      -0.031     -0.349     +0.002
      -0.422     -0.105     +0.000
      -0.031     -0.349     -0.002
      +0.141     +0.019     -0.000
      +0.156     +0.032     +0.000
vibration  5
      -0.000     +0.000     -0.095
      +0.000     +0.000     +0.346
      -0.000     +0.000     -0.382
      +0.000     -0.000     -0.039
      +0.000     +0.000     -0.033
      -0.000     -0.000     -0.268
      +0.276     -0.180     -0.179
      -0.000     +0.000     -0.214
      -0.276     +0.180     -0.179
      -0.000     -0.000     -0.021
      +0.000     +0.000     -0.569
vibration  6
      -0.041     +0.057     +0.000
      +0.179     +0.049     -0.000
      -0.292     +0.403     +0.000
      +0.296     -0.155     +0.000
      -0.112     +0.162     +0.000
      -0.230     -0.290     +0.000
      +0.311     -0.210     +0.005
      +0.161     -0.133     -0.000
      +0.311     -0.210     -0.005
      -0.255     -0.067     +0.000
      -0.043     +0.166     +0.000
vibration  7
      +0.000     -0.000     +0.011
      +0.000     -0.000     -0.010
      -0.000     +0.000     -0.666
      -0.000     -0.000     +0.004
      +0.000     +0.000     +0.013
      -0.000     -0.000     +0.679
      -0.114     +0.074     +0.062
      +0.000     -0.000     +0.100
      +0.114     -0.074     +0.062
      -0.000     -0.000     -0.016
      +0.000     +0.000     -0.199
vibration  8
      +0.047     -0.219     -0.000
      +0.076     -0.110     -0.000
      -0.152     +0.039     +0.000
      -0.164     +0.076     -0.000
      +0.137     +0.317     +0.000
      -0.134     -0.575     -0.000
      -0.207     +0.233     -0.014
      +0.077     +0.040     -0.000
      -0.207     +0.233     +0.014
      -0.052     -0.067     -0.000
      +0.297     +0.333     +0.000
vibration  9
      -0.139     +0.001     -0.000
      -0.196     -0.018     -0.000
      +0.215     -0.489     -0.000
      +0.108     -0.132     +0.000
      +0.104     +0.161     -0.000
      +0.146     +0.545     +0.000
      +0.041     +0.073     -0.008
      +0.372     -0.176     -0.000
      +0.041     +0.073     +0.008
      +0.027     -0.023     +0.000
      +0.232     +0.184     +0.000
vibration  10
      +0.000     +0.000     -0.046
      -0.000     +0.000     -0.002
      -0.000     +0.000     -0.028
      -0.000     -0.000     +0.106
      -0.000     -0.000     -0.146
      -0.000     -0.000     +0.416
      +0.404     -0.182     -0.128
      +0.000     -0.000     -0.221
      -0.404     +0.182     -0.128
      +0.000     +0.000     +0.036
      +0.000     -0.000     +0.562
vibration  11
      +0.063     +0.085     +0.000
      -0.033     +0.011     +0.000
      -0.150     +0.385     +0.000
      -0.054     -0.122     -0.000
      -0.011     -0.037     +0.000
      -0.081     -0.175     -0.000
      -0.150     +0.365     -0.060
      +0.621     -0.231     +0.000
      -0.150     +0.365     +0.060
      +0.020     +0.005     -0.000
      +0.016     -0.032     -0.000
vibration  12
      +0.000     +0.000     +0.143
      -0.000     -0.000     +0.009
      -0.000     +0.000     -0.664
      -0.000     -0.000     -0.023
      -0.000     +0.000     -0.103
      -0.000     -0.000     -0.570
      -0.091     +0.039     +0.028
      +0.000     -0.000     +0.047
      +0.091     -0.039     +0.028
      +0.000     -0.000     +0.026
      +0.000     -0.000     +0.422
vibration  13
      +0.000     -0.000     -0.091
      -0.000     +0.000     +0.162
      -0.000     -0.000     +0.308
      +0.000     -0.000     -0.120
      -0.000     +0.000     -0.123
      -0.000     -0.000     +0.287
      -0.431     +0.167     +0.137
      +0.000     -0.000     +0.264
      +0.431     -0.167     +0.137
      +0.000     -0.000     +0.028
      +0.000     -0.000     +0.473
vibration  14
      -0.145     +0.013     -0.000
      +0.311     +0.012     +0.000
      +0.204     -0.446     +0.000
      -0.113     -0.043     -0.000
      -0.010     -0.017     -0.000
      +0.139     +0.534     -0.000
      -0.104     +0.279     -0.086
      +0.206     -0.082     -0.000
      -0.104     +0.279     +0.086
      -0.036     -0.005     +0.000
      -0.274     -0.059     +0.000
vibration  15
      +0.013     +0.018     -0.000
      -0.027     -0.056     +0.000
      -0.139     +0.243     +0.000
      +0.043     -0.007     +0.000
      +0.035     +0.069     +0.000
      +0.085     +0.174     +0.000
      -0.142     +0.082     +0.090
      -0.214     +0.044     +0.000
      -0.142     +0.082     -0.090
      +0.041     -0.056     -0.000
      -0.865     -0.018     +0.000
vibration  16
      +0.004     +0.012     +0.000
      -0.018     -0.013     -0.000
      -0.005     +0.021     -0.000
      -0.103     +0.051     -0.000
      +0.014     +0.029     +0.000
      -0.007     -0.007     +0.000
      +0.442     -0.269     -0.255
      +0.450     -0.059     +0.000
      +0.442     -0.269     +0.255
      +0.015     -0.022     -0.000
      -0.335     +0.000     +0.000
vibration  17
      +0.005     +0.014     +0.000
      -0.022     +0.117     +0.000
      +0.360     -0.513     -0.000
      +0.019     -0.034     +0.000
      +0.003     +0.006     +0.000
      -0.300     -0.595     -0.000
      +0.002     +0.107     -0.024
      -0.056     -0.013     -0.000
      +0.002     +0.107     +0.024
      +0.018     -0.019     -0.000
      -0.345     -0.025     +0.000
vibration  18
      -0.008     +0.030     +0.000
      +0.021     -0.004     -0.000
      +0.078     -0.089     -0.000
      +0.005     +0.056     -0.000
      +0.007     +0.001     -0.000
      -0.058     -0.063     +0.000
      -0.340     -0.374     +0.334
      +0.483     -0.058     +0.000
      -0.340     -0.374     -0.334
      -0.003     -0.002     +0.000
      -0.065     -0.004     +0.000
vibration  19
      -0.000     +0.000     -0.002
      +0.000     -0.000     +0.018
      -0.000     +0.000     +0.011
      -0.000     +0.000     +0.053
      +0.000     +0.000     -0.002
      +0.000     +0.000     -0.006
      -0.080     +0.487     -0.051
      +0.000     +0.000     -0.710
      +0.080     -0.487     -0.051
      -0.000     -0.000     +0.000
      -0.000     -0.000     +0.006
vibration  20
      +0.011     -0.362     -0.000
      -0.003     +0.398     +0.000
      -0.448     +0.193     -0.000
      +0.012     -0.028     +0.000
      -0.228     +0.050     +0.000
      +0.405     +0.306     +0.000
      -0.070     -0.060     +0.064
      +0.292     -0.083     +0.000
      -0.070     -0.060     -0.064
      +0.155     -0.066     -0.000
      -0.090     +0.076     -0.000
vibration  21
      -0.026     +0.201     +0.000
      +0.069     -0.245     -0.000
      +0.287     -0.171     +0.000
      +0.001     +0.026     -0.000
      -0.499     +0.206     +0.000
      -0.249     -0.140     -0.000
      +0.029     +0.019     -0.015
      -0.129     +0.040     -0.000
      +0.029     +0.019     +0.015
      +0.317     -0.145     -0.000
      +0.423     +0.296     +0.000
vibration  22
      +0.001     +0.000     -0.000
      -0.003     +0.001     +0.000
      -0.011     -0.006     -0.000
      +0.003     -0.007     -0.000
      -0.008     +0.084     +0.000
      +0.004     -0.004     +0.000
      -0.022     -0.014     -0.036
      +0.026     +0.107     +0.000
      -0.022     -0.014     +0.036
      +0.001     -0.001     -0.000
      +0.097     -0.983     -0.000
vibration  23
      -0.000     -0.001     -0.000
      -0.000     +0.000     +0.000
      +0.011     +0.006     -0.000
      +0.041     -0.026     +0.000
      +0.000     -0.009     -0.000
      -0.009     +0.002     +0.000
      -0.297     -0.134     -0.466
      +0.116     +0.571     +0.000
      -0.297     -0.134     +0.466
      +0.000     +0.000     -0.000
      -0.009     +0.109     +0.000
vibration  24
      +0.000     +0.001     +0.000
      -0.000     -0.001     -0.000
      -0.013     -0.007     -0.000
      -0.047     -0.078     -0.000
      -0.000     -0.004     -0.000
      +0.011     -0.005     +0.000
      +0.215     +0.074     +0.350
      +0.142     +0.788     +0.000
      +0.215     +0.074     -0.349
      +0.000     +0.000     +0.000
      -0.002     +0.054     +0.000
vibration  25
      +0.000     +0.000     -0.000
      -0.000     -0.000     +0.000
      -0.000     -0.000     +0.002
      -0.000     -0.000     +0.092
      -0.000     -0.000     +0.000
      +0.000     -0.000     -0.001
      -0.388     -0.164     -0.564
      +0.000     +0.000     +0.025
      +0.388     +0.164     -0.564
      +0.000     +0.000     -0.000
      -0.000     +0.000     -0.000
vibration  26
      -0.003     -0.070     -0.000
      -0.001     +0.009     +0.000
      +0.617     +0.435     +0.000
      -0.002     -0.001     +0.000
      +0.001     +0.001     +0.000
      -0.582     +0.293     -0.000
      +0.010     +0.002     +0.013
      +0.003     +0.006     +0.000
      +0.010     +0.002     -0.013
      -0.000     +0.001     +0.000
      -0.001     -0.013     -0.000
vibration  27
      +0.099     +0.002     +0.000
      +0.002     -0.000     +0.000
      -0.522     -0.380     -0.000
      -0.000     +0.000     -0.000
      +0.000     -0.001     -0.000
      -0.667     +0.357     -0.000
      -0.002     +0.001     -0.001
      -0.000     +0.000     +0.000
      -0.002     +0.001     +0.001
      -0.000     +0.000     +0.000
      -0.001     +0.004     +0.000
