[Molden Format]
[FR-COORD] # Coordinates in bohr
  C    +2.836525    -0.908451    -0.148831 
  C    +1.511569    +1.171178    +0.142069 
  H    +1.922277    -2.674656    -0.534342 
  C    -1.335914    +1.240466    -0.014700 
  H    +2.417612    +2.956959    +0.489064 
  H    +4.860324    -0.916361    -0.041830 
  O    -2.446061    -1.242170    -0.062888 
  H    -2.088332    +2.360178    +1.533067 
  H    -1.917496    +2.135558    -1.757326 
  H    -2.239135    -2.045815    +1.564995 
[FREQ] # Frequencies in cm^-1
  202.5880
  314.0020
  387.1558
  638.9343
  671.9127
  929.1871
 1065.0140
 1092.4790
 1141.1424
 1161.7575
 1220.6009
 1327.2092
 1457.6755
 1494.8215
 1524.3311
 1598.4291
 1672.0637
 1862.7855
 3180.3915
 3253.8025
 3320.8272
 3339.9151
 3412.6531
 3861.5556
[FR-NORM-COORD] # Displacements in bohr
vibration  1
      -0.001     -0.018     +0.106
      +0.006     +0.021     -0.152
      -0.009     -0.094     +0.475
      -0.005     +0.001     +0.127
      +0.021     +0.089     -0.539
      +0.008     +0.023     -0.067
      +0.008     +0.002     -0.086
      +0.141     -0.204     +0.350
      -0.182     +0.233     +0.306
      -0.084     -0.114     -0.132
vibration  2
      +0.320     +0.085     -0.004
      +0.028     -0.099     -0.016
      +0.612     -0.080     +0.023
      +0.012     -0.091     +0.006
      -0.129     -0.011     -0.030
      +0.323     +0.411     +0.007
      -0.319     +0.064     +0.014
      +0.126     +0.002     -0.003
      +0.080     -0.029     +0.013
      -0.249     -0.062     -0.058
vibration  3
      +0.005     +0.015     -0.031
      +0.012     +0.009     +0.022
      -0.038     +0.023     +0.041
      +0.013     -0.013     +0.014
      +0.003     +0.024     -0.028
      +0.010     +0.014     -0.123
      +0.034     -0.031     -0.015
      -0.030     -0.021     -0.001
      +0.044     -0.004     +0.007
      -0.883     +0.336     +0.280
vibration  4
      -0.040     +0.031     -0.016
      +0.085     +0.083     +0.108
      -0.287     +0.080     +0.345
      +0.061     -0.060     +0.014
      +0.075     +0.169     -0.321
      -0.015     -0.134     -0.569
      -0.080     -0.027     -0.017
      -0.151     +0.067     -0.189
      +0.288     -0.211     -0.142
      +0.092     -0.190     -0.116
vibration  5
      -0.028     +0.036     +0.026
      +0.134     +0.142     -0.090
      -0.322     +0.257     -0.307
      +0.066     -0.071     -0.018
      +0.062     +0.097     +0.314
      -0.058     -0.391     +0.486
      -0.104     -0.062     +0.014
      +0.210     -0.184     +0.134
      -0.174     +0.014     +0.112
      -0.118     -0.077     +0.011
vibration  6
      +0.160     -0.093     -0.004
      +0.214     +0.043     +0.037
      -0.029     -0.016     +0.060
      -0.325     +0.209     -0.013
      +0.442     -0.054     +0.002
      +0.176     -0.338     -0.150
      -0.028     -0.111     -0.013
      -0.449     +0.074     +0.015
      -0.371     +0.113     -0.040
      +0.079     +0.102     +0.085
vibration  7
      +0.001     +0.010     +0.031
      -0.015     -0.019     +0.068
      -0.078     +0.044     +0.053
      +0.039     +0.009     -0.141
      -0.095     +0.028     +0.034
      +0.021     +0.027     -0.395
      -0.030     -0.037     +0.013
      +0.241     -0.383     +0.248
      -0.155     +0.477     +0.168
      +0.243     +0.384     +0.195
vibration  8
      -0.113     +0.000     -0.027
      +0.003     +0.027     -0.012
      +0.368     -0.255     +0.088
      +0.151     +0.205     +0.028
      +0.408     -0.190     +0.044
      -0.117     +0.556     +0.184
      -0.091     -0.198     -0.014
      +0.070     +0.197     -0.019
      +0.195     +0.111     -0.032
      +0.030     -0.033     +0.072
vibration  9
      -0.011     -0.025     +0.123
      +0.003     +0.001     -0.007
      +0.066     +0.141     -0.829
      +0.006     +0.015     +0.016
      +0.054     +0.051     -0.392
      +0.012     +0.118     -0.298
      -0.003     -0.011     -0.000
      -0.011     +0.057     -0.023
      +0.019     -0.035     -0.016
      -0.051     -0.040     -0.008
vibration  10
      -0.020     -0.018     +0.086
      +0.017     +0.028     -0.101
      +0.051     -0.052     +0.083
      -0.005     -0.014     +0.008
      +0.053     -0.148     +0.704
      +0.018     +0.179     -0.595
      +0.008     +0.018     +0.001
      +0.029     +0.067     -0.035
      -0.104     -0.138     -0.022
      -0.080     -0.122     -0.061
vibration  11
      -0.100     -0.029     -0.027
      +0.096     +0.075     +0.059
      +0.382     -0.267     -0.023
      -0.046     -0.135     -0.056
      +0.513     -0.100     -0.139
      -0.097     +0.433     +0.129
      +0.012     +0.087     +0.015
      -0.144     -0.354     +0.056
      -0.240     -0.059     +0.053
      -0.023     +0.033     -0.018
vibration  12
      +0.005     +0.014     -0.014
      -0.012     -0.022     +0.081
      -0.041     +0.021     +0.068
      +0.013     +0.048     -0.076
      +0.042     -0.010     -0.122
      +0.005     -0.004     -0.038
      +0.017     -0.002     +0.021
      +0.484     +0.202     +0.054
      -0.568     -0.167     +0.012
      -0.262     -0.474     -0.192
vibration  13
      +0.030     +0.115     +0.021
      -0.062     -0.088     -0.024
      -0.365     +0.321     +0.039
      +0.002     -0.015     -0.002
      +0.696     -0.479     -0.049
      +0.015     -0.015     +0.010
      +0.001     +0.009     +0.004
      -0.068     -0.097     +0.011
      +0.061     -0.004     -0.011
      +0.006     -0.005     -0.004
vibration  14
      +0.005     -0.010     +0.000
      -0.005     +0.005     -0.016
      +0.022     -0.017     -0.008
      -0.006     +0.033     -0.071
      -0.051     +0.022     +0.028
      +0.007     -0.024     -0.001
      +0.019     +0.005     +0.074
      -0.282     -0.286     +0.016
      +0.361     +0.477     +0.017
      -0.293     -0.582     -0.197
vibration  15
      -0.034     +0.020     +0.001
      +0.054     +0.001     +0.002
      -0.018     +0.015     +0.004
      -0.139     -0.077     -0.005
      +0.081     -0.011     +0.008
      -0.037     +0.135     +0.024
      +0.016     -0.014     -0.003
      +0.640     +0.422     +0.027
      +0.492     +0.332     -0.008
      +0.010     -0.001     +0.002
vibration  16
      -0.002     -0.036     -0.009
      +0.093     -0.070     -0.008
      -0.540     +0.246     +0.036
      -0.013     +0.024     +0.000
      -0.263     +0.102     +0.011
      -0.021     +0.710     +0.136
      +0.001     +0.006     +0.002
      -0.090     -0.088     +0.039
      -0.041     -0.081     -0.042
      +0.008     -0.019     -0.012
vibration  17
      +0.007     -0.010     -0.002
      +0.002     +0.000     +0.002
      -0.076     +0.032     +0.007
      +0.043     -0.068     +0.009
      +0.021     -0.013     -0.001
      +0.005     +0.071     +0.015
      -0.000     -0.006     -0.002
      -0.267     +0.448     -0.475
      -0.327     +0.479     +0.383
      +0.018     +0.009     +0.006
vibration  18
      -0.199     +0.291     +0.041
      +0.257     -0.292     -0.036
      +0.508     -0.010     +0.012
      -0.019     +0.034     +0.004
      -0.412     -0.018     -0.026
      -0.245     -0.374     -0.078
      +0.005     +0.001     +0.002
      -0.229     -0.005     -0.068
      -0.164     +0.010     +0.038
      -0.004     -0.005     -0.003
vibration  19
      +0.000     -0.000     -0.000
      +0.002     +0.004     +0.000
      +0.001     +0.006     +0.001
      +0.034     -0.048     -0.047
      -0.019     -0.052     -0.009
      -0.006     -0.000     -0.001
      -0.001     -0.001     +0.000
      -0.360     +0.512     +0.747
      -0.042     +0.070     -0.184
      -0.000     +0.001     -0.004
vibration  20
      -0.000     +0.001     +0.000
      -0.001     -0.002     -0.001
      -0.004     -0.007     -0.002
      -0.017     +0.027     -0.081
      +0.009     +0.026     +0.004
      +0.009     +0.000     -0.001
      +0.001     -0.001     +0.002
      -0.078     +0.105     +0.124
      +0.283     -0.415     +0.841
      -0.007     +0.004     -0.025
vibration  21
      +0.031     -0.025     -0.003
      -0.030     -0.057     -0.011
      +0.155     +0.291     +0.063
      +0.002     -0.003     -0.001
      +0.348     +0.683     +0.133
      -0.524     -0.004     -0.029
      -0.000     +0.000     +0.000
      -0.015     +0.018     +0.026
      -0.008     +0.008     -0.019
      +0.001     +0.000     +0.000
vibration  22
      -0.030     +0.051     +0.008
      -0.017     -0.053     -0.010
      -0.268     -0.505     -0.109
      +0.003     -0.002     +0.000
      +0.265     +0.523     +0.102
      +0.545     +0.002     +0.030
      +0.000     -0.000     -0.000
      -0.017     +0.018     +0.025
      -0.013     +0.013     -0.028
      +0.001     -0.001     +0.001
vibration  23
      +0.081     +0.053     +0.014
      +0.005     +0.010     +0.002
      -0.326     -0.653     -0.140
      -0.001     +0.001     +0.000
      -0.053     -0.110     -0.021
      -0.649     +0.010     -0.033
      +0.000     -0.001     +0.000
      +0.002     -0.003     -0.004
      +0.001     -0.001     +0.004
      -0.002     +0.000     -0.001
vibration  24
      -0.000     -0.000     +0.000
      -0.000     +0.000     -0.000
      -0.001     +0.001     -0.000
      +0.002     +0.001     +0.004
      +0.001     +0.001     +0.000
      +0.001     +0.000     +0.000
      +0.005     -0.030     +0.054
      +0.003     -0.001     -0.007
      -0.006     +0.009     -0.019
      -0.101     +0.455     -0.882
