[Molden Format]
[FR-COORD] # Coordinates in bohr
  C    +2.913954    +1.785877    +1.087901 
  C    +1.472392    +0.250522    -0.229541 
  H    +2.141071    +3.282680    +2.223925 
  C    -1.360073    +0.428279    -0.384001 
  H    +2.271992    -1.245042    -1.342676 
  H    +4.933851    +1.612084    +1.093409 
  O    -2.370261    -2.115783    -0.467276 
  H    -2.089753    +1.492023    +1.208295 
  H    -1.905508    +1.402514    -2.101005 
  H    -3.767209    -2.311751    +0.685963 
[FREQ] # Frequencies in cm^-1
 -321.5904
  101.8412
  340.0939
  491.6105
  688.8481
  974.5368
 1067.8556
 1100.6159
 1115.5562
 1172.7027
 1208.7641
 1368.4785
 1429.4320
 1449.1716
 1544.8088
 1619.2939
 1678.8110
 1861.1013
 3194.5162
 3226.1615
 3309.2296
 3352.0749
 3389.7268
 3896.7590
[FR-NORM-COORD] # Displacements in bohr
vibration  1
      +0.004     +0.009     +0.013
      +0.011     -0.002     +0.019
      -0.003     +0.020     -0.006
      +0.013     -0.009     -0.019
      +0.023     -0.007     +0.033
      +0.005     +0.012     +0.025
      -0.063     +0.019     -0.051
      -0.027     +0.032     -0.066
      +0.038     -0.063     -0.052
      +0.619     -0.261     +0.724
vibration  2
      -0.057     -0.121     +0.135
      -0.000     +0.098     -0.184
      -0.114     -0.361     +0.412
      -0.001     +0.028     -0.144
      +0.061     +0.322     -0.441
      -0.053     -0.072     +0.134
      +0.049     -0.004     +0.154
      +0.019     +0.182     -0.237
      -0.062     -0.164     -0.233
      +0.073     +0.101     +0.203
vibration  3
      +0.071     -0.092     -0.019
      -0.161     +0.058     +0.071
      +0.359     +0.162     -0.160
      -0.137     +0.116     -0.047
      -0.334     -0.170     +0.252
      +0.036     -0.511     +0.026
      +0.180     -0.022     +0.002
      -0.291     +0.109     -0.114
      -0.132     -0.013     -0.119
      +0.220     -0.217     +0.017
vibration  4
      +0.199     +0.058     +0.036
      +0.009     +0.153     +0.093
      +0.475     -0.008     +0.308
      -0.055     -0.086     -0.050
      +0.060     +0.313     -0.098
      +0.197     -0.034     -0.345
      -0.138     -0.101     -0.018
      -0.264     +0.036     -0.229
      +0.110     -0.243     -0.193
      -0.220     +0.035     -0.092
vibration  5
      -0.046     -0.016     -0.050
      -0.074     -0.100     +0.115
      -0.054     -0.289     +0.303
      +0.027     +0.016     +0.016
      -0.098     +0.157     -0.248
      -0.013     +0.365     -0.579
      +0.065     +0.056     -0.006
      -0.139     +0.188     -0.174
      +0.307     -0.099     -0.144
      +0.059     -0.031     -0.033
vibration  6
      +0.119     -0.001     +0.007
      +0.144     -0.080     -0.010
      -0.400     -0.198     -0.069
      -0.190     +0.120     +0.011
      -0.069     -0.126     -0.107
      +0.165     +0.555     +0.277
      -0.007     -0.034     +0.004
      -0.274     +0.198     -0.079
      -0.131     -0.040     -0.095
      -0.043     -0.319     -0.086
vibration  7
      -0.011     -0.003     -0.050
      -0.030     +0.061     -0.047
      -0.153     -0.033     -0.106
      +0.100     +0.017     +0.164
      -0.257     +0.014     -0.140
      -0.036     -0.210     +0.411
      -0.027     -0.031     -0.030
      -0.181     +0.390     -0.221
      +0.406     -0.385     -0.164
      -0.067     -0.164     -0.099
vibration  8
      -0.031     -0.045     +0.042
      -0.042     -0.002     +0.037
      -0.026     +0.125     -0.178
      +0.178     +0.354     -0.042
      -0.204     +0.009     -0.076
      -0.010     +0.247     -0.352
      -0.081     -0.310     -0.016
      +0.271     +0.123     +0.149
      +0.049     +0.427     +0.059
      -0.032     +0.325     +0.209
vibration  9
      -0.005     -0.089     +0.105
      +0.002     +0.013     -0.018
      +0.025     +0.506     -0.656
      -0.010     -0.037     +0.027
      +0.027     +0.217     -0.275
      +0.025     +0.247     -0.280
      +0.006     +0.032     -0.001
      -0.048     +0.034     -0.042
      +0.036     -0.111     -0.033
      -0.008     -0.066     -0.042
vibration  10
      -0.005     -0.046     +0.060
      -0.001     +0.086     -0.098
      -0.021     -0.094     +0.113
      +0.024     -0.022     +0.033
      -0.142     -0.510     +0.601
      +0.028     +0.327     -0.403
      -0.005     +0.011     -0.009
      +0.021     +0.110     -0.053
      -0.004     -0.136     -0.024
      -0.017     -0.072     -0.040
vibration  11
      -0.078     +0.033     +0.017
      +0.069     -0.060     -0.029
      +0.326     +0.135     +0.140
      -0.034     +0.070     +0.032
      +0.435     +0.063     +0.071
      -0.099     -0.303     -0.239
      -0.015     -0.010     +0.002
      +0.224     +0.353     -0.036
      -0.076     -0.113     -0.055
      -0.065     -0.502     -0.145
vibration  12
      +0.062     -0.004     -0.009
      -0.096     +0.027     +0.062
      -0.133     -0.066     -0.041
      +0.054     -0.032     -0.067
      -0.208     +0.063     -0.061
      +0.076     +0.188     +0.161
      -0.019     +0.020     +0.010
      +0.671     +0.182     +0.076
      -0.292     -0.106     +0.009
      -0.066     -0.470     -0.142
vibration  13
      -0.005     +0.003     +0.008
      +0.004     +0.023     -0.022
      +0.010     +0.021     -0.006
      +0.012     -0.008     -0.054
      -0.132     -0.055     -0.018
      -0.007     -0.024     -0.003
      -0.024     +0.009     +0.055
      -0.125     -0.251     +0.031
      +0.569     +0.504     +0.044
      -0.062     -0.544     -0.103
vibration  14
      -0.021     +0.097     +0.072
      +0.054     -0.078     -0.040
      +0.359     +0.212     +0.186
      +0.005     -0.012     -0.011
      -0.730     -0.281     -0.352
      -0.018     -0.036     -0.019
      +0.001     +0.008     -0.004
      +0.043     -0.029     +0.013
      -0.117     -0.101     -0.022
      +0.005     +0.035     +0.004
vibration  15
      -0.015     -0.008     -0.010
      +0.036     +0.011     +0.035
      -0.176     -0.079     -0.046
      +0.130     +0.060     -0.026
      -0.038     +0.018     -0.015
      -0.037     -0.159     -0.160
      -0.029     +0.030     +0.022
      -0.500     -0.423     -0.002
      -0.503     -0.276     -0.009
      -0.074     -0.323     -0.107
vibration  16
      +0.003     +0.024     +0.019
      +0.092     +0.049     +0.049
      -0.566     -0.153     -0.166
      -0.052     -0.029     -0.007
      -0.242     -0.038     -0.068
      -0.059     -0.534     -0.423
      +0.005     -0.006     -0.006
      +0.204     +0.150     +0.002
      +0.049     +0.074     +0.017
      +0.015     +0.074     +0.023
vibration  17
      +0.003     +0.003     +0.003
      -0.004     -0.009     +0.000
      +0.017     +0.012     -0.001
      +0.052     -0.064     +0.001
      -0.016     +0.002     -0.024
      +0.004     +0.012     +0.017
      -0.001     -0.007     +0.001
      -0.266     +0.458     -0.453
      -0.336     +0.482     +0.400
      -0.004     -0.023     -0.005
vibration  18
      -0.220     -0.215     -0.186
      +0.271     +0.203     +0.188
      +0.542     -0.042     +0.013
      -0.042     -0.025     -0.025
      -0.391     +0.062     -0.005
      -0.221     +0.349     +0.247
      -0.005     -0.002     -0.001
      +0.143     +0.068     +0.008
      -0.081     +0.030     +0.024
      -0.008     +0.002     -0.004
vibration  19
      +0.000     +0.001     +0.001
      -0.001     +0.001     +0.000
      +0.011     -0.015     -0.013
      +0.037     -0.054     +0.002
      +0.004     -0.009     -0.008
      -0.011     +0.002     +0.003
      -0.001     -0.001     +0.000
      -0.246     +0.348     +0.571
      -0.178     +0.310     -0.600
      +0.008     -0.002     -0.003
vibration  20
      -0.000     +0.001     +0.001
      -0.003     +0.003     +0.001
      +0.008     -0.011     -0.010
      +0.005     -0.002     -0.095
      +0.020     -0.041     -0.033
      -0.002     +0.001     +0.001
      -0.001     +0.001     +0.001
      -0.255     +0.354     +0.539
      +0.201     -0.334     +0.595
      +0.009     -0.003     -0.013
vibration  21
      +0.026     +0.050     +0.042
      -0.009     +0.002     +0.001
      +0.314     -0.596     -0.453
      -0.001     +0.001     +0.002
      +0.043     -0.078     -0.057
      -0.566     +0.059     +0.006
      +0.000     +0.000     -0.000
      +0.014     -0.016     -0.025
      +0.002     -0.002     +0.003
      -0.000     -0.000     +0.001
vibration  22
      -0.024     +0.022     +0.016
      +0.027     -0.061     -0.046
      +0.103     -0.203     -0.154
      -0.000     -0.001     -0.005
      -0.368     +0.683     +0.508
      +0.232     -0.019     +0.001
      -0.000     +0.000     +0.000
      -0.016     +0.018     +0.030
      +0.011     -0.013     +0.022
      +0.002     +0.002     -0.001
vibration  23
      +0.083     -0.033     -0.021
      +0.011     -0.025     -0.019
      -0.179     +0.370     +0.282
      -0.001     -0.001     -0.003
      -0.136     +0.258     +0.192
      -0.784     +0.062     -0.007
      -0.000     +0.000     +0.000
      -0.012     +0.011     +0.017
      +0.004     -0.006     +0.011
      +0.002     +0.001     -0.001
vibration  24
      -0.000     -0.000     -0.000
      -0.000     -0.000     -0.000
      +0.000     +0.000     +0.000
      +0.000     -0.003     -0.002
      -0.002     +0.001     +0.001
      -0.001     +0.000     -0.000
      +0.049     +0.010     -0.039
      -0.009     +0.003     +0.012
      +0.002     -0.004     +0.003
      -0.765     -0.122     +0.628
