[Molden Format]
[FR-COORD] # Coordinates in bohr
  C    +2.876894    +1.592042    +1.308143 
  C    +1.487120    +0.342587    -0.330499 
  H    +2.048565    +2.807572    +2.709479 
  C    -1.353133    +0.473321    -0.455354 
  H    +2.348098    -0.871094    -1.712837 
  H    +4.900489    +1.464041    +1.317672 
  O    -2.464667    -2.020262    -0.530551 
  H    -2.086441    +1.577428    +1.108980 
  H    -1.944623    +1.360286    -2.196185 
  H    -2.000110    -2.946262    +0.974273 
[FREQ] # Frequencies in cm^-1
  110.8243
  347.3261
  381.9426
  488.2735
  713.0858
  977.8125
 1040.6599
 1108.2417
 1126.5677
 1172.5774
 1241.4347
 1345.9639
 1450.5238
 1479.6010
 1520.6482
 1615.7658
 1678.7262
 1859.2842
 3196.6456
 3268.1153
 3310.0010
 3337.3771
 3389.5017
 3859.7755
[FR-NORM-COORD] # Displacements in bohr
vibration  1
      +0.072     +0.158     -0.110
      +0.006     -0.123     +0.162
      +0.135     +0.417     -0.298
      +0.008     -0.042     +0.145
      -0.057     -0.364     +0.335
      +0.071     +0.138     -0.157
      -0.065     +0.004     -0.157
      +0.007     -0.182     +0.244
      +0.071     +0.161     +0.225
      -0.221     -0.151     -0.204
vibration  2
      +0.054     -0.077     -0.030
      -0.162     +0.020     +0.088
      +0.318     +0.252     -0.161
      -0.129     +0.122     -0.029
      -0.330     -0.295     +0.258
      +0.028     -0.513     -0.024
      +0.189     -0.029     -0.019
      -0.283     +0.101     -0.089
      -0.095     +0.011     -0.096
      +0.175     +0.125     +0.080
vibration  3
      +0.033     -0.002     +0.001
      -0.002     +0.042     -0.004
      +0.074     -0.077     +0.092
      -0.007     -0.018     +0.015
      -0.013     +0.115     -0.072
      +0.036     +0.027     -0.086
      +0.031     -0.037     -0.034
      -0.044     -0.034     +0.011
      -0.005     -0.015     +0.015
      -0.814     +0.300     +0.434
vibration  4
      -0.192     -0.039     -0.045
      +0.001     -0.133     -0.109
      -0.465     +0.029     -0.263
      +0.061     +0.065     +0.086
      -0.038     -0.279     +0.005
      -0.194     +0.031     +0.297
      +0.142     +0.072     +0.004
      +0.273     -0.083     +0.294
      -0.134     +0.255     +0.251
      -0.150     +0.184     +0.162
vibration  5
      +0.043     +0.009     +0.046
      +0.081     +0.120     -0.102
      +0.029     +0.357     -0.263
      -0.025     -0.012     -0.011
      +0.109     -0.199     +0.195
      +0.012     -0.470     +0.515
      -0.067     -0.058     +0.003
      +0.107     -0.165     +0.158
      -0.297     +0.068     +0.128
      -0.082     -0.053     +0.013
vibration  6
      -0.125     -0.005     -0.019
      -0.150     +0.110     -0.007
      +0.349     +0.216     +0.055
      +0.220     -0.141     +0.036
      +0.000     +0.084     +0.116
      -0.162     -0.598     -0.269
      +0.010     +0.072     +0.009
      +0.226     -0.025     -0.044
      +0.231     -0.187     +0.005
      -0.153     -0.214     -0.123
vibration  7
      -0.032     +0.014     +0.034
      -0.009     -0.039     +0.035
      +0.276     +0.070     +0.160
      -0.005     -0.005     -0.127
      +0.268     +0.058     +0.121
      -0.026     -0.015     -0.369
      -0.010     -0.007     +0.014
      +0.266     -0.338     +0.241
      -0.260     +0.394     +0.168
      +0.184     +0.305     +0.151
vibration  8
      +0.059     +0.018     +0.016
      +0.061     -0.016     -0.024
      +0.022     -0.073     +0.077
      -0.279     -0.376     -0.037
      +0.265     -0.094     +0.151
      +0.068     +0.040     +0.116
      +0.146     +0.335     +0.025
      -0.220     -0.301     -0.038
      -0.424     -0.353     +0.019
      -0.147     -0.074     -0.178
vibration  9
      +0.003     +0.109     -0.085
      -0.000     -0.007     +0.005
      -0.019     -0.620     +0.532
      +0.006     +0.011     -0.008
      -0.021     -0.276     +0.229
      -0.027     -0.341     +0.252
      -0.005     -0.011     +0.000
      +0.031     +0.001     +0.013
      -0.009     +0.045     +0.015
      +0.021     +0.017     +0.010
vibration  10
      +0.004     +0.058     -0.055
      -0.002     -0.087     +0.069
      +0.004     +0.100     -0.092
      -0.018     -0.009     -0.005
      +0.094     +0.599     -0.474
      -0.029     -0.440     +0.368
      +0.002     +0.007     +0.001
      -0.065     -0.080     +0.021
      +0.087     +0.066     -0.001
      +0.062     +0.108     +0.046
vibration  11
      +0.075     -0.029     -0.019
      -0.087     +0.078     +0.035
      -0.301     -0.105     -0.161
      +0.075     -0.090     -0.056
      -0.466     -0.100     -0.044
      +0.081     +0.222     +0.276
      -0.023     +0.021     +0.009
      -0.127     -0.424     +0.078
      +0.237     +0.250     +0.061
      +0.197     +0.306     +0.124
vibration  12
      -0.063     -0.006     +0.006
      +0.083     +0.015     -0.073
      +0.117     +0.064     +0.037
      -0.045     -0.027     +0.095
      +0.194     -0.105     +0.097
      -0.070     -0.166     -0.181
      -0.019     -0.002     -0.021
      -0.472     -0.091     -0.068
      +0.552     +0.129     -0.032
      +0.270     +0.415     +0.160
vibration  13
      +0.027     -0.079     -0.092
      -0.061     +0.065     +0.061
      -0.358     -0.182     -0.237
      -0.007     +0.008     +0.014
      +0.717     +0.230     +0.414
      +0.020     +0.037     +0.036
      +0.001     -0.009     -0.001
      +0.021     +0.068     -0.007
      +0.068     +0.058     +0.015
      -0.003     -0.004     +0.003
vibration  14
      +0.023     +0.007     +0.011
      -0.040     +0.007     -0.007
      +0.047     +0.034     +0.013
      -0.032     -0.070     +0.059
      -0.042     +0.003     -0.006
      +0.029     +0.063     +0.122
      -0.017     -0.010     -0.063
      +0.558     +0.473     -0.033
      -0.057     -0.225     -0.001
      +0.310     +0.495     +0.166
vibration  15
      +0.008     +0.005     +0.011
      -0.015     +0.008     -0.024
      +0.087     +0.049     +0.028
      -0.100     -0.040     -0.035
      -0.039     -0.023     -0.019
      +0.015     +0.047     +0.092
      +0.027     -0.015     +0.033
      +0.383     +0.232     +0.005
      +0.578     +0.550     +0.024
      -0.171     -0.291     -0.089
vibration  16
      -0.001     -0.019     -0.022
      -0.092     -0.041     -0.063
      +0.568     +0.131     +0.209
      +0.030     +0.025     +0.014
      +0.252     +0.028     +0.084
      +0.042     +0.442     +0.534
      -0.000     +0.002     +0.002
      -0.142     -0.127     +0.025
      +0.046     -0.073     -0.040
      -0.006     -0.011     -0.003
vibration  17
      -0.002     -0.001     -0.001
      +0.007     +0.010     +0.004
      -0.043     -0.018     -0.009
      -0.057     +0.061     -0.007
      -0.007     -0.009     +0.014
      -0.005     -0.027     -0.043
      +0.001     +0.006     +0.001
      +0.327     -0.410     +0.470
      +0.345     -0.469     -0.390
      -0.014     -0.009     -0.006
vibration  18
      +0.210     +0.175     +0.228
      -0.259     -0.164     -0.229
      -0.541     +0.027     -0.016
      +0.036     +0.021     +0.028
      +0.393     -0.048     +0.000
      +0.231     -0.288     -0.310
      +0.006     +0.001     +0.002
      -0.142     -0.061     -0.011
      +0.126     -0.009     -0.024
      -0.013     -0.018     -0.002
vibration  19
      -0.000     -0.001     -0.002
      +0.002     -0.002     -0.001
      -0.014     +0.014     +0.018
      -0.036     +0.049     +0.042
      -0.016     +0.025     +0.029
      +0.010     -0.001     -0.004
      +0.001     +0.001     -0.000
      +0.343     -0.497     -0.744
      +0.066     -0.103     +0.243
      -0.001     +0.000     +0.001
vibration  20
      +0.000     -0.000     -0.000
      +0.004     -0.004     -0.005
      -0.003     +0.003     +0.003
      +0.015     -0.023     +0.084
      -0.037     +0.055     +0.064
      +0.002     -0.001     +0.001
      -0.001     +0.001     -0.002
      +0.098     -0.135     -0.180
      -0.283     +0.407     -0.822
      +0.010     -0.007     +0.023
vibration  21
      -0.027     -0.039     -0.049
      +0.012     -0.006     -0.006
      -0.323     +0.464     +0.535
      +0.001     -0.001     -0.003
      -0.079     +0.110     +0.125
      +0.592     -0.046     -0.007
      -0.000     -0.000     +0.000
      -0.017     +0.020     +0.029
      +0.003     -0.005     +0.010
      +0.001     -0.000     -0.001
vibration  22
      +0.013     -0.018     -0.021
      -0.030     +0.051     +0.058
      -0.119     +0.174     +0.200
      +0.001     +0.000     +0.009
      +0.401     -0.564     -0.642
      -0.091     +0.005     -0.001
      -0.000     -0.000     -0.000
      +0.022     -0.027     -0.040
      -0.026     +0.031     -0.062
      -0.000     -0.001     +0.004
vibration  23
      -0.086     +0.029     +0.028
      -0.008     +0.014     +0.017
      +0.210     -0.326     -0.378
      +0.001     +0.001     +0.003
      +0.101     -0.147     -0.167
      +0.796     -0.046     +0.009
      -0.000     -0.000     -0.000
      +0.012     -0.012     -0.016
      -0.006     +0.007     -0.015
      -0.000     -0.000     +0.002
vibration  24
      +0.000     +0.000     -0.000
      +0.000     -0.000     +0.000
      +0.000     -0.001     +0.000
      -0.002     -0.001     -0.004
      -0.000     +0.001     +0.000
      -0.001     +0.000     -0.001
      -0.014     +0.034     -0.050
      -0.003     +0.001     +0.005
      +0.007     -0.009     +0.020
      +0.243     -0.522     +0.815
