[Molden Format]
[FR-COORD] # Coordinates in bohr
  C    +2.981344    +2.095802    +0.130275 
  C    +1.440932    +0.148500    +0.075431 
  H    +2.309566    +4.013091    +0.066460 
  C    -1.400995    +0.337005    -0.080283 
  H    +2.131667    -1.756605    +0.140090 
  H    +4.991252    +1.858316    +0.241903 
  O    -2.341515    -2.224676    -0.093972 
  H    -2.130289    +1.377432    +1.529944 
  H    -1.951629    +1.329572    -1.788733 
  H    -4.162909    -2.249752    -0.191664 
[FREQ] # Frequencies in cm^-1
  -99.8120
  267.8777
  328.4173
  528.8572
  631.5880
  950.9894
 1104.5372
 1115.6496
 1119.3012
 1173.5964
 1211.9072
 1354.7391
 1368.5473
 1439.7620
 1558.9504
 1615.6755
 1684.6292
 1858.2051
 3178.4032
 3204.5268
 3307.2861
 3361.3913
 3391.0269
 3881.3895
[FR-NORM-COORD] # Displacements in bohr
vibration  1
      -0.009     +0.002     +0.158
      +0.010     -0.003     -0.186
      -0.031     +0.008     +0.578
      +0.007     -0.002     -0.133
      +0.032     -0.009     -0.602
      -0.002     +0.001     +0.039
      -0.008     +0.002     +0.141
      +0.040     +0.184     -0.240
      -0.014     -0.191     -0.237
      -0.007     +0.002     +0.126
vibration  2
      +0.001     -0.000     -0.016
      +0.001     -0.000     -0.012
      -0.002     +0.001     +0.040
      -0.002     +0.001     +0.035
      +0.003     -0.001     -0.063
      +0.004     -0.001     -0.076
      -0.003     +0.001     +0.060
      -0.002     +0.009     +0.027
      -0.001     -0.008     +0.027
      +0.053     -0.014     -0.989
vibration  3
      -0.108     +0.109     -0.007
      +0.172     -0.118     +0.011
      -0.463     -0.012     -0.025
      +0.163     -0.101     +0.010
      +0.351     -0.052     +0.020
      -0.066     +0.486     -0.011
      -0.179     +0.039     -0.010
      +0.258     -0.028     +0.007
      +0.257     -0.028     +0.021
      -0.183     +0.335     -0.015
vibration  4
      +0.257     +0.134     +0.012
      +0.074     +0.223     +0.001
      +0.592     +0.247     +0.028
      -0.057     -0.142     -0.001
      +0.182     +0.253     +0.006
      +0.225     -0.203     +0.015
      -0.239     -0.165     -0.010
      -0.113     -0.168     -0.012
      -0.114     -0.168     +0.004
      -0.247     +0.090     -0.015
vibration  5
      +0.003     -0.001     -0.047
      -0.008     +0.002     +0.157
      -0.020     +0.005     +0.376
      -0.001     +0.000     +0.012
      +0.018     -0.005     -0.337
      +0.038     -0.010     -0.698
      +0.002     -0.000     -0.031
      -0.235     +0.147     -0.190
      +0.254     -0.152     -0.159
      -0.002     +0.001     +0.044
vibration  6
      +0.126     +0.004     +0.007
      +0.164     -0.083     +0.010
      -0.400     -0.170     -0.019
      -0.206     +0.120     -0.013
      -0.040     -0.160     +0.000
      +0.197     +0.606     +0.002
      -0.020     -0.034     -0.001
      -0.216     +0.084     +0.002
      -0.214     +0.084     -0.028
      -0.016     -0.401     +0.005
vibration  7
      -0.008     +0.002     +0.143
      -0.000     +0.000     +0.008
      +0.031     -0.008     -0.571
      +0.005     -0.001     -0.087
      +0.003     -0.001     -0.058
      +0.037     -0.010     -0.680
      -0.001     +0.000     +0.021
      +0.188     -0.196     +0.122
      -0.200     +0.199     +0.095
      +0.001     -0.000     -0.009
vibration  8
      -0.019     -0.035     -0.001
      -0.073     +0.054     -0.005
      -0.219     -0.100     -0.010
      +0.244     +0.376     +0.008
      -0.514     -0.093     -0.026
      -0.009     +0.135     -0.002
      -0.086     -0.342     +0.000
      +0.211     +0.271     +0.039
      +0.214     +0.271     -0.024
      -0.128     +0.243     -0.010
vibration  9
      -0.002     +0.001     +0.043
      +0.001     -0.000     -0.014
      +0.034     -0.009     -0.633
      -0.006     +0.002     +0.108
      +0.030     -0.008     -0.549
      -0.011     +0.003     +0.206
      +0.001     -0.000     -0.026
      -0.194     +0.248     -0.143
      +0.207     -0.251     -0.114
      -0.000     +0.000     +0.005
vibration  10
      -0.004     +0.001     +0.080
      +0.008     -0.002     -0.153
      -0.002     +0.000     +0.032
      -0.006     +0.002     +0.115
      -0.037     +0.010     +0.690
      +0.023     -0.006     -0.423
      +0.002     -0.000     -0.033
      -0.148     +0.321     -0.155
      +0.163     -0.325     -0.129
      -0.001     +0.000     +0.012
vibration  11
      +0.089     -0.045     +0.005
      -0.076     +0.077     -0.005
      -0.373     -0.195     -0.017
      +0.034     -0.093     +0.003
      -0.484     -0.074     -0.025
      +0.138     +0.436     +0.001
      +0.026     +0.027     +0.001
      -0.129     -0.178     -0.013
      -0.130     -0.178     +0.004
      +0.017     +0.493     -0.006
vibration  12
      +0.040     -0.001     +0.002
      -0.065     +0.050     -0.004
      -0.091     -0.038     -0.004
      +0.056     -0.065     +0.004
      -0.299     -0.033     -0.016
      +0.056     +0.161     +0.001
      -0.043     +0.042     -0.003
      +0.330     +0.108     +0.013
      +0.330     +0.108     +0.019
      -0.012     -0.780     +0.011
vibration  13
      -0.001     +0.000     +0.010
      +0.003     -0.001     -0.052
      +0.002     -0.000     -0.033
      +0.001     -0.000     -0.011
      -0.002     +0.001     +0.039
      +0.000     -0.000     -0.000
      -0.002     +0.001     +0.036
      -0.567     -0.418     -0.009
      +0.566     +0.418     +0.040
      -0.001     +0.000     +0.026
vibration  14
      -0.026     +0.121     -0.003
      +0.067     -0.092     +0.005
      +0.365     +0.259     +0.016
      +0.003     -0.011     +0.000
      -0.759     -0.406     -0.035
      -0.038     -0.095     -0.001
      +0.001     +0.009     -0.000
      -0.057     -0.075     +0.012
      -0.056     -0.075     -0.016
      +0.003     +0.027     -0.000
vibration  15
      +0.021     +0.016     +0.001
      -0.055     -0.041     -0.002
      +0.261     +0.116     +0.012
      -0.132     -0.041     -0.007
      +0.036     -0.017     +0.002
      +0.068     +0.315     -0.001
      +0.039     -0.037     +0.003
      +0.479     +0.282     +0.062
      +0.483     +0.280     -0.019
      +0.021     +0.401     -0.005
vibration  16
      +0.004     +0.025     -0.000
      +0.093     +0.065     +0.004
      -0.561     -0.190     -0.027
      -0.076     -0.030     -0.004
      -0.221     -0.047     -0.011
      -0.092     -0.655     +0.005
      +0.012     -0.011     +0.001
      +0.215     +0.108     +0.042
      +0.219     +0.107     -0.021
      +0.005     +0.138     -0.002
vibration  17
      -0.003     -0.007     -0.000
      -0.003     +0.006     -0.000
      +0.012     -0.001     +0.001
      -0.036     +0.071     -0.003
      +0.034     +0.020     +0.002
      +0.000     +0.018     -0.000
      -0.003     +0.011     -0.000
      +0.227     -0.500     +0.441
      +0.272     -0.512     -0.399
      -0.004     -0.026     +0.000
vibration  18
      +0.238     +0.278     +0.009
      -0.284     -0.263     -0.011
      -0.559     +0.053     -0.031
      +0.046     +0.033     +0.002
      +0.362     -0.080     +0.021
      +0.198     -0.454     +0.017
      +0.007     +0.001     +0.000
      -0.058     -0.055     +0.011
      -0.057     -0.055     -0.016
      +0.007     +0.001     +0.000
vibration  19
      -0.001     -0.001     -0.000
      +0.001     -0.001     +0.000
      -0.008     +0.017     -0.001
      -0.036     +0.053     -0.003
      -0.000     +0.006     -0.000
      +0.010     -0.004     +0.001
      +0.001     +0.001     +0.000
      +0.239     -0.336     -0.573
      +0.176     -0.319     +0.604
      -0.009     +0.004     -0.001
vibration  20
      +0.000     -0.000     -0.000
      -0.000     +0.000     +0.001
      -0.000     +0.000     +0.003
      -0.005     +0.001     +0.095
      -0.000     +0.000     +0.004
      +0.000     -0.000     -0.001
      +0.000     -0.000     -0.001
      +0.258     -0.354     -0.551
      -0.197     +0.338     -0.586
      -0.000     +0.000     +0.002
vibration  21
      -0.026     -0.066     -0.000
      +0.008     +0.001     +0.000
      -0.281     +0.789     -0.027
      +0.001     -0.001     +0.000
      -0.027     +0.070     -0.002
      +0.529     -0.076     +0.030
      -0.000     -0.000     -0.000
      -0.007     +0.007     +0.012
      -0.006     +0.007     -0.013
      +0.001     -0.000     +0.000
vibration  22
      +0.033     -0.030     +0.002
      -0.023     +0.073     -0.002
      -0.092     +0.273     -0.009
      +0.001     +0.001     +0.000
      +0.306     -0.833     +0.028
      -0.346     +0.039     -0.019
      +0.000     -0.000     +0.000
      +0.001     -0.001     -0.002
      +0.000     -0.001     +0.002
      -0.003     -0.003     -0.000
vibration  23
      -0.078     +0.038     -0.005
      -0.012     +0.040     -0.001
      +0.134     -0.422     +0.013
      +0.001     +0.001     +0.000
      +0.153     -0.425     +0.014
      +0.763     -0.083     +0.042
      +0.000     -0.000     +0.000
      +0.003     -0.000     -0.002
      +0.002     +0.000     +0.002
      -0.003     -0.002     -0.000
vibration  24
      +0.000     +0.000     -0.000
      +0.000     +0.000     +0.000
      +0.000     -0.001     +0.000
      -0.001     +0.003     -0.000
      +0.003     -0.003     +0.000
      +0.000     -0.000     +0.000
      -0.063     -0.004     -0.003
      +0.004     -0.001     -0.005
      +0.003     -0.001     +0.005
      +0.996     +0.034     +0.053
