[Molden Format]
[FR-COORD] # Coordinates in bohr
  C    +2.919179    +0.014245    -1.262535 
  C    +1.470169    +0.846125    +0.574614 
  H    +2.146367    -0.578933    -3.043308 
  C    -1.372917    +0.982169    +0.354793 
  H    +2.281372    +1.387164    +2.354342 
  H    +4.931360    -0.132580    -1.056770 
  O    -2.336490    -1.578676    +0.311204 
  H    -2.145215    +2.028829    +1.937035 
  H    -1.887198    +1.970663    -1.366122 
  H    -4.161038    -1.559228    +0.202299 
[FREQ] # Frequencies in cm^-1
 -154.4675
  312.8370
  326.0951
  509.8549
  745.4391
  951.1960
 1063.9002
 1107.9261
 1118.4995
 1158.3531
 1266.4422
 1337.5338
 1392.8222
 1476.0587
 1587.0405
 1612.6832
 1709.0064
 1863.3974
 3188.6187
 3218.4762
 3315.1287
 3342.1378
 3393.1406
 3848.3271
[FR-NORM-COORD] # Displacements in bohr
vibration  1
      -0.076     -0.138     +0.035
      +0.007     +0.134     -0.023
      -0.170     -0.515     +0.203
      -0.015     +0.019     +0.122
      +0.102     +0.520     -0.184
      -0.055     -0.001     -0.069
      +0.074     -0.008     -0.122
      +0.015     -0.186     +0.272
      -0.138     +0.195     +0.258
      +0.075     -0.060     -0.146
vibration  2
      -0.076     -0.011     -0.016
      -0.007     -0.010     +0.037
      -0.152     +0.093     -0.019
      +0.006     +0.027     -0.008
      +0.010     -0.111     +0.058
      -0.079     -0.118     -0.077
      +0.064     +0.006     +0.061
      -0.059     +0.076     -0.075
      +0.063     -0.045     -0.068
      +0.123     -0.052     -0.931
vibration  3
      -0.148     -0.052     +0.020
      -0.054     -0.014     +0.070
      -0.237     +0.242     -0.040
      -0.013     +0.090     -0.061
      -0.070     -0.322     +0.169
      -0.173     -0.389     +0.011
      +0.188     +0.015     -0.054
      -0.126     +0.093     -0.118
      +0.043     +0.015     -0.117
      +0.145     -0.170     +0.614
vibration  4
      +0.102     -0.043     +0.005
      -0.100     -0.035     -0.150
      +0.450     +0.121     -0.198
      -0.108     +0.078     +0.059
      -0.144     -0.287     -0.049
      +0.052     -0.184     +0.427
      +0.070     +0.024     +0.032
      +0.077     -0.090     +0.261
      -0.357     +0.210     +0.209
      +0.078     -0.155     -0.134
vibration  5
      +0.017     -0.022     +0.010
      +0.100     +0.223     -0.027
      -0.075     +0.412     -0.096
      +0.021     -0.022     +0.005
      +0.058     -0.206     +0.123
      -0.051     -0.781     +0.129
      -0.086     -0.095     -0.003
      -0.016     -0.106     +0.038
      -0.106     -0.046     +0.032
      -0.088     +0.103     -0.033
vibration  6
      -0.145     +0.031     +0.047
      -0.183     +0.039     -0.087
      +0.189     +0.029     -0.089
      +0.270     -0.141     -0.007
      -0.204     -0.015     -0.072
      -0.195     +0.030     +0.491
      +0.021     +0.031     +0.006
      +0.381     -0.162     +0.060
      +0.157     -0.052     +0.076
      +0.028     +0.508     -0.014
vibration  7
      -0.047     -0.010     -0.050
      +0.003     +0.012     +0.000
      +0.375     -0.084     -0.201
      +0.008     +0.072     +0.123
      +0.348     -0.023     -0.144
      -0.077     +0.093     +0.386
      -0.016     -0.059     -0.034
      -0.298     +0.346     -0.215
      +0.358     -0.253     -0.166
      -0.024     -0.020     +0.015
vibration  8
      +0.022     -0.041     -0.014
      +0.024     +0.011     +0.007
      +0.107     +0.459     -0.221
      -0.133     -0.282     +0.078
      +0.121     +0.384     -0.147
      +0.007     -0.234     +0.033
      +0.061     +0.225     -0.018
      -0.333     -0.047     -0.162
      +0.080     -0.413     -0.079
      +0.079     +0.004     +0.020
vibration  9
      +0.019     +0.109     -0.049
      +0.006     +0.020     -0.007
      -0.067     -0.737     +0.269
      -0.030     -0.062     +0.020
      -0.013     -0.437     +0.141
      -0.031     -0.326     +0.138
      +0.013     +0.051     -0.004
      -0.084     -0.006     -0.041
      +0.040     -0.094     -0.018
      +0.017     -0.004     +0.003
vibration  10
      +0.015     +0.108     -0.033
      -0.021     -0.119     +0.034
      -0.050     -0.023     +0.037
      +0.015     +0.043     -0.015
      +0.007     +0.662     -0.217
      -0.066     -0.638     +0.211
      -0.006     -0.027     +0.006
      +0.076     +0.009     +0.035
      +0.027     +0.098     +0.014
      -0.007     -0.065     -0.003
vibration  11
      +0.097     +0.000     +0.039
      -0.101     -0.009     -0.088
      -0.325     +0.110     +0.172
      +0.032     +0.028     +0.139
      -0.404     +0.023     +0.038
      +0.122     -0.156     -0.396
      +0.007     -0.024     -0.041
      +0.100     +0.475     -0.123
      +0.056     -0.404     -0.112
      +0.002     +0.096     -0.005
vibration  12
      -0.020     +0.002     +0.020
      +0.001     +0.031     -0.025
      -0.029     +0.047     +0.011
      +0.033     -0.038     +0.004
      -0.008     -0.040     -0.001
      -0.027     +0.007     +0.060
      -0.044     +0.038     -0.006
      +0.365     +0.194     +0.012
      +0.260     +0.113     +0.024
      -0.033     -0.854     -0.005
vibration  13
      -0.045     +0.014     +0.010
      +0.058     -0.018     +0.035
      +0.020     -0.022     +0.005
      -0.014     -0.002     -0.014
      +0.184     -0.009     -0.024
      -0.058     +0.069     +0.173
      +0.003     +0.007     -0.030
      +0.463     +0.316     +0.021
      -0.653     -0.415     -0.052
      +0.003     +0.024     -0.022
vibration  14
      +0.020     +0.036     +0.109
      -0.047     -0.028     -0.084
      -0.359     +0.141     +0.244
      -0.015     -0.004     -0.017
      +0.745     -0.207     -0.395
      +0.014     -0.001     -0.005
      +0.004     -0.002     +0.005
      -0.029     -0.059     +0.004
      +0.058     +0.049     -0.012
      +0.004     +0.056     +0.001
vibration  15
      +0.009     -0.000     -0.001
      -0.005     -0.023     -0.020
      -0.135     +0.025     +0.057
      +0.144     +0.057     +0.018
      -0.054     +0.008     -0.014
      -0.002     +0.053     +0.094
      -0.036     +0.041     -0.001
      -0.560     -0.394     -0.041
      -0.427     -0.344     -0.036
      -0.028     -0.401     -0.001
vibration  16
      +0.001     -0.014     -0.029
      +0.098     -0.028     -0.062
      -0.562     +0.147     +0.179
      -0.040     -0.006     +0.015
      -0.282     +0.052     +0.080
      -0.065     +0.254     +0.648
      +0.008     -0.008     +0.002
      -0.041     +0.060     -0.025
      +0.117     +0.082     +0.009
      +0.006     +0.097     +0.001
vibration  17
      -0.004     +0.000     +0.002
      +0.008     +0.002     -0.005
      -0.002     -0.001     -0.000
      -0.052     +0.063     -0.004
      -0.031     +0.008     +0.012
      -0.005     +0.011     +0.013
      +0.000     +0.008     -0.001
      +0.275     -0.457     +0.459
      +0.340     -0.477     -0.391
      -0.003     +0.003     -0.000
vibration  18
      +0.214     -0.118     -0.253
      -0.267     +0.117     +0.245
      -0.524     +0.047     -0.048
      +0.032     -0.011     -0.031
      +0.402     -0.018     +0.045
      +0.214     +0.133     +0.405
      -0.001     +0.003     +0.000
      +0.227     -0.007     +0.058
      -0.052     -0.017     -0.001
      -0.001     -0.035     -0.004
vibration  19
      -0.000     +0.000     +0.001
      +0.001     -0.001     -0.002
      -0.005     -0.001     -0.009
      -0.035     +0.052     -0.025
      +0.004     +0.006     +0.011
      +0.006     +0.001     +0.002
      +0.002     +0.001     +0.000
      +0.188     -0.249     -0.425
      +0.201     -0.385     +0.727
      -0.011     +0.004     -0.001
vibration  20
      +0.000     -0.000     -0.001
      -0.002     -0.002     -0.006
      +0.006     +0.001     +0.008
      -0.016     +0.014     +0.091
      +0.032     +0.023     +0.079
      -0.008     +0.001     -0.002
      +0.001     +0.000     -0.000
      +0.325     -0.423     -0.658
      -0.139     +0.249     -0.429
      -0.003     +0.001     +0.002
vibration  21
      -0.038     +0.023     +0.050
      +0.013     +0.003     +0.012
      -0.271     -0.201     -0.607
      -0.000     +0.000     +0.003
      -0.096     -0.064     -0.211
      +0.668     -0.045     +0.078
      -0.000     -0.000     -0.000
      +0.008     -0.011     -0.019
      -0.008     +0.011     -0.019
      +0.000     -0.000     +0.000
vibration  22
      +0.007     +0.011     +0.030
      -0.027     -0.023     -0.074
      -0.129     -0.099     -0.298
      +0.003     -0.002     -0.006
      +0.368     +0.250     +0.820
      -0.016     +0.002     +0.000
      -0.000     -0.000     +0.000
      -0.033     +0.036     +0.056
      +0.008     -0.013     +0.022
      +0.001     -0.000     -0.000
vibration  23
      -0.081     -0.010     -0.050
      -0.008     -0.006     -0.020
      +0.228     +0.186     +0.553
      +0.001     -0.000     -0.002
      +0.093     +0.066     +0.214
      +0.729     -0.056     +0.067
      +0.000     +0.000     +0.000
      -0.008     +0.008     +0.014
      +0.006     -0.005     +0.008
      +0.000     +0.000     -0.000
vibration  24
      +0.000     -0.000     -0.000
      +0.000     -0.000     +0.000
      +0.000     +0.000     +0.000
      -0.001     +0.004     -0.000
      -0.000     -0.000     -0.000
      +0.000     +0.000     -0.000
      -0.062     -0.003     -0.004
      +0.005     -0.002     -0.006
      +0.003     -0.002     +0.006
      +0.996     +0.009     +0.059
