[Molden Format]
[FR-COORD] # Coordinates in bohr
  C    +2.801673    -0.963422    +0.134590 
  C    +1.522025    +1.160523    +0.052515 
  H    +1.840317    -2.743027    +0.114530 
  C    -1.318578    +1.270247    -0.083547 
  H    +2.458053    +2.964601    +0.093246 
  H    +4.826225    -0.985740    +0.239341 
  O    -2.352847    -1.250049    -0.006623 
  H    -2.046357    +2.355530    +1.495826 
  H    -1.870615    +2.250221    -1.802878 
  H    -3.647672    -1.473842    -1.267972 
[FREQ] # Frequencies in cm^-1
 -260.8482
  202.9498
  328.1813
  641.1765
  652.2141
  931.3292
 1076.9038
 1096.7620
 1141.2963
 1164.9711
 1219.9508
 1338.5921
 1427.6359
 1459.3417
 1564.3364
 1594.8958
 1679.4523
 1867.9664
 3170.6553
 3205.6681
 3317.2912
 3341.9497
 3426.2571
 3902.3206
[FR-NORM-COORD] # Displacements in bohr
vibration  1
      +0.007     +0.001     -0.001
      +0.013     +0.003     -0.034
      -0.007     +0.007     +0.068
      +0.007     -0.004     +0.030
      +0.018     +0.002     -0.087
      +0.008     -0.011     -0.032
      -0.062     +0.019     +0.038
      +0.035     -0.068     +0.080
      -0.053     +0.048     +0.081
      +0.668     -0.279     -0.656
vibration  2
      -0.005     +0.002     +0.115
      +0.006     -0.001     -0.155
      -0.020     +0.006     +0.473
      -0.007     +0.002     +0.125
      +0.023     -0.001     -0.532
      +0.003     +0.007     -0.045
      +0.017     -0.014     -0.103
      +0.148     -0.209     +0.344
      -0.183     +0.227     +0.312
      -0.168     +0.169     +0.055
vibration  3
      +0.303     +0.078     +0.013
      +0.022     -0.092     +0.003
      +0.576     -0.078     +0.013
      +0.012     -0.086     -0.003
      -0.126     -0.009     -0.000
      +0.308     +0.381     +0.015
      -0.291     +0.043     -0.011
      +0.099     -0.003     -0.017
      +0.103     -0.022     +0.001
      -0.350     +0.245     +0.012
vibration  4
      -0.006     +0.006     +0.027
      +0.024     +0.017     -0.119
      -0.029     +0.023     -0.410
      +0.011     -0.009     -0.023
      -0.008     +0.021     +0.402
      -0.040     -0.036     +0.656
      -0.014     -0.008     +0.022
      +0.242     -0.143     +0.178
      -0.258     +0.125     +0.146
      -0.036     -0.016     +0.046
vibration  5
      -0.065     +0.067     -0.009
      +0.193     +0.201     +0.030
      -0.549     +0.323     +0.044
      +0.119     -0.122     +0.007
      +0.115     +0.238     -0.075
      -0.072     -0.460     -0.120
      -0.151     -0.108     -0.005
      +0.025     -0.098     -0.059
      +0.137     -0.191     -0.036
      -0.192     +0.165     -0.019
vibration  6
      +0.152     -0.088     +0.010
      +0.208     +0.045     +0.024
      -0.057     +0.019     +0.014
      -0.295     +0.187     -0.033
      +0.391     -0.040     +0.008
      +0.160     -0.378     -0.045
      -0.026     -0.071     -0.007
      -0.373     +0.016     +0.040
      -0.390     +0.156     -0.011
      -0.085     -0.361     +0.098
vibration  7
      +0.069     +0.013     +0.023
      -0.010     -0.018     +0.045
      -0.296     +0.197     +0.036
      -0.069     -0.177     -0.091
      -0.348     +0.156     +0.050
      +0.074     -0.412     -0.277
      +0.047     +0.174     +0.000
      +0.130     -0.368     +0.145
      -0.175     +0.163     +0.137
      -0.016     -0.324     +0.183
vibration  8
      +0.057     -0.007     -0.045
      +0.009     -0.008     -0.059
      -0.145     +0.093     -0.005
      -0.093     -0.083     +0.150
      -0.136     +0.069     -0.109
      +0.025     -0.246     +0.490
      +0.041     +0.074     -0.029
      -0.310     +0.310     -0.217
      +0.145     -0.469     -0.156
      +0.086     +0.241     -0.096
vibration  9
      -0.001     +0.001     +0.109
      -0.002     -0.002     +0.008
      +0.029     -0.004     -0.834
      -0.007     -0.004     +0.015
      +0.008     +0.004     -0.492
      +0.014     -0.031     -0.202
      +0.004     +0.003     +0.001
      -0.030     +0.030     -0.019
      +0.016     -0.040     -0.014
      +0.021     +0.041     -0.023
vibration  10
      -0.003     -0.004     +0.108
      +0.012     +0.003     -0.125
      +0.014     -0.011     -0.051
      -0.020     -0.010     +0.045
      -0.013     -0.002     +0.679
      +0.036     -0.013     -0.628
      +0.008     +0.003     -0.008
      -0.037     +0.158     -0.078
      -0.041     -0.208     -0.063
      +0.033     +0.156     -0.063
vibration  11
      -0.103     -0.034     -0.010
      +0.104     +0.085     +0.020
      +0.395     -0.291     +0.018
      -0.051     -0.146     -0.010
      +0.524     -0.136     -0.028
      -0.089     +0.463     +0.012
      +0.010     +0.093     -0.003
      -0.169     -0.233     -0.005
      -0.233     -0.198     +0.022
      +0.000     +0.045     +0.031
vibration  12
      +0.028     -0.010     -0.012
      -0.024     -0.003     +0.065
      -0.023     +0.012     +0.069
      -0.011     +0.007     -0.066
      -0.030     +0.004     -0.082
      +0.029     -0.110     -0.038
      +0.023     -0.021     +0.022
      +0.246     +0.056     +0.026
      -0.616     -0.209     +0.013
      +0.110     +0.649     -0.199
vibration  13
      +0.020     -0.008     +0.005
      -0.021     -0.001     -0.035
      +0.002     -0.001     -0.011
      +0.009     +0.008     -0.042
      -0.015     -0.006     +0.045
      +0.019     -0.090     +0.017
      +0.014     -0.007     +0.054
      -0.606     -0.511     +0.012
      +0.232     +0.270     +0.023
      +0.061     +0.463     -0.093
vibration  14
      +0.030     +0.116     +0.001
      -0.061     -0.089     -0.001
      -0.367     +0.336     -0.022
      +0.002     -0.016     +0.002
      +0.689     -0.492     +0.035
      +0.014     +0.005     -0.001
      +0.001     +0.009     -0.002
      -0.002     -0.046     +0.012
      -0.012     -0.059     -0.011
      -0.004     -0.015     +0.011
vibration  15
      -0.023     +0.018     -0.002
      +0.036     +0.009     +0.002
      +0.036     -0.012     +0.008
      -0.156     -0.072     -0.035
      +0.102     -0.022     +0.010
      -0.022     +0.020     -0.006
      +0.027     -0.028     +0.028
      +0.505     +0.237     +0.063
      +0.570     +0.416     -0.000
      +0.088     +0.342     -0.115
vibration  16
      -0.003     -0.040     +0.001
      +0.093     -0.067     +0.005
      -0.531     +0.254     -0.033
      -0.026     +0.017     -0.007
      -0.258     +0.112     -0.013
      -0.007     +0.735     -0.011
      +0.005     +0.001     +0.005
      -0.038     -0.065     +0.040
      -0.020     -0.037     -0.037
      +0.015     +0.075     -0.021
vibration  17
      +0.006     -0.010     +0.001
      +0.002     +0.001     -0.001
      -0.069     +0.032     -0.005
      +0.038     -0.070     +0.003
      +0.021     -0.013     +0.002
      +0.005     +0.066     +0.000
      +0.002     -0.008     +0.002
      -0.261     +0.459     -0.455
      -0.270     +0.517     +0.395
      +0.001     +0.002     -0.000
vibration  18
      -0.196     +0.302     -0.013
      +0.259     -0.307     +0.015
      +0.493     -0.006     +0.031
      -0.024     +0.034     -0.003
      -0.427     -0.014     -0.018
      -0.256     -0.362     -0.007
      +0.006     -0.001     +0.003
      -0.198     +0.001     -0.060
      -0.194     +0.013     +0.039
      +0.011     +0.046     -0.013
vibration  19
      +0.000     -0.000     +0.000
      +0.002     +0.004     +0.000
      +0.002     +0.006     +0.000
      +0.030     -0.048     +0.044
      -0.016     -0.044     -0.001
      -0.007     -0.000     -0.000
      -0.001     -0.001     -0.001
      -0.106     +0.155     +0.276
      -0.250     +0.424     -0.799
      +0.010     -0.003     +0.008
vibration  20
      -0.000     +0.000     +0.000
      -0.001     -0.003     +0.001
      -0.001     -0.004     +0.000
      -0.021     +0.027     +0.083
      +0.012     +0.032     +0.000
      +0.004     +0.000     +0.001
      +0.000     +0.001     -0.001
      +0.344     -0.484     -0.734
      -0.099     +0.156     -0.255
      +0.003     -0.002     +0.010
vibration  21
      +0.031     -0.016     +0.002
      -0.032     -0.063     -0.001
      +0.111     +0.198     +0.003
      +0.002     -0.003     -0.001
      +0.389     +0.744     +0.017
      -0.485     +0.002     -0.025
      +0.000     +0.000     +0.000
      -0.016     +0.017     +0.028
      -0.009     +0.010     -0.021
      -0.001     +0.001     -0.000
vibration  22
      -0.044     +0.046     -0.003
      -0.015     -0.048     -0.001
      -0.243     -0.436     -0.006
      +0.002     -0.002     -0.000
      +0.237     +0.456     +0.010
      +0.690     -0.005     +0.036
      +0.000     -0.000     +0.000
      -0.015     +0.016     +0.024
      -0.010     +0.010     -0.019
      +0.000     -0.000     -0.000
vibration  23
      +0.075     +0.062     +0.003
      +0.005     +0.006     +0.000
      -0.388     -0.745     -0.008
      -0.000     +0.001     +0.000
      -0.038     -0.079     -0.002
      -0.526     +0.012     -0.027
      +0.000     -0.000     -0.000
      +0.001     -0.001     -0.002
      +0.000     -0.001     +0.002
      -0.000     -0.001     +0.000
vibration  24
      -0.000     +0.000     -0.000
      -0.000     +0.000     +0.000
      -0.000     +0.000     +0.000
      +0.000     -0.003     +0.002
      -0.001     -0.001     -0.000
      +0.000     +0.000     +0.000
      +0.045     +0.011     +0.043
      +0.002     -0.004     -0.002
      -0.008     +0.002     -0.012
      -0.710     -0.138     -0.687
