[Molden Format]
[FR-COORD] # Coordinates in bohr
  C    +2.827937    -0.418750    +1.251530 
  C    +1.541482    +1.001673    -0.332329 
  H    +1.926920    -1.635157    +2.608948 
  C    -1.324020    +1.085057    -0.464629 
  H    +2.530346    +2.214395    -1.625802 
  H    +4.854410    -0.422585    +1.279895 
  O    -2.528568    -1.363200    -0.441735 
  H    -2.030913    +2.218104    +1.091665 
  H    -1.904760    +1.984838    -2.199441 
  H    -1.506852    -2.584990    +0.442898 
[FREQ] # Frequencies in cm^-1
 -256.7916
 -122.3038
  310.8662
  552.6478
  712.0597
  913.4158
 1066.1747
 1115.2159
 1117.6278
 1164.9729
 1233.3232
 1366.3360
 1421.8087
 1476.3506
 1547.3020
 1616.6272
 1699.7574
 1856.7541
 3191.4707
 3277.6640
 3304.6034
 3338.5916
 3388.5170
 3903.0475
[FR-NORM-COORD] # Displacements in bohr
vibration  1
      -0.024     -0.005     +0.015
      +0.001     -0.002     -0.005
      -0.057     +0.028     +0.022
      +0.004     +0.008     -0.033
      +0.017     -0.013     -0.002
      -0.024     -0.021     +0.030
      -0.015     +0.011     +0.072
      -0.006     +0.014     -0.047
      +0.038     +0.013     -0.046
      +0.490     -0.219     -0.831
vibration  2
      +0.019     +0.088     +0.067
      +0.008     -0.093     -0.090
      +0.010     +0.408     +0.350
      -0.003     +0.007     +0.124
      -0.001     -0.411     -0.393
      +0.021     -0.071     -0.081
      -0.019     +0.004     -0.095
      +0.121     -0.184     +0.317
      -0.120     +0.217     +0.275
      -0.014     -0.055     -0.177
vibration  3
      -0.261     -0.092     -0.040
      -0.032     +0.054     -0.090
      -0.490     +0.132     +0.011
      -0.014     +0.098     +0.040
      +0.078     -0.132     -0.173
      -0.265     -0.449     +0.005
      +0.265     -0.032     +0.049
      +0.008     +0.007     +0.116
      -0.178     +0.082     +0.089
      +0.305     +0.156     +0.253
vibration  4
      +0.077     -0.044     -0.002
      -0.113     -0.055     +0.125
      +0.363     +0.104     +0.320
      -0.092     +0.082     -0.038
      -0.096     -0.316     -0.111
      +0.087     -0.131     -0.514
      +0.074     +0.018     -0.021
      -0.303     +0.190     -0.214
      +0.128     -0.064     -0.191
      +0.180     +0.138     +0.019
vibration  5
      +0.008     -0.008     -0.034
      +0.110     +0.196     +0.073
      -0.228     +0.355     +0.138
      +0.031     -0.034     +0.014
      +0.092     -0.105     -0.223
      +0.009     -0.659     -0.285
      -0.090     -0.071     -0.003
      -0.187     -0.003     -0.115
      +0.125     -0.164     -0.084
      -0.159     -0.146     -0.020
vibration  6
      -0.134     +0.064     -0.065
      -0.200     -0.003     +0.055
      +0.045     +0.084     +0.063
      +0.279     -0.174     +0.071
      -0.333     -0.013     -0.041
      -0.137     +0.113     -0.399
      +0.049     +0.104     -0.006
      +0.170     +0.022     -0.112
      +0.448     -0.242     -0.022
      -0.311     -0.273     -0.122
vibration  7
      -0.078     +0.002     +0.033
      -0.015     +0.042     +0.029
      +0.339     -0.164     +0.148
      +0.104     +0.065     -0.114
      +0.275     -0.076     +0.139
      -0.066     +0.116     -0.497
      -0.059     -0.087     +0.024
      +0.331     -0.242     +0.209
      -0.181     +0.356     +0.140
      +0.106     +0.091     +0.101
vibration  8
      +0.003     -0.095     -0.079
      +0.000     +0.005     +0.007
      +0.007     +0.612     +0.560
      -0.001     -0.023     -0.027
      -0.008     +0.319     +0.294
      -0.000     +0.239     +0.174
      -0.003     +0.010     +0.003
      +0.048     -0.075     +0.040
      -0.048     +0.058     +0.031
      +0.019     +0.042     +0.027
vibration  9
      +0.037     +0.037     +0.073
      +0.012     +0.009     +0.005
      +0.004     -0.035     -0.003
      -0.114     -0.212     -0.122
      -0.017     +0.209     +0.169
      +0.044     -0.537     -0.321
      +0.066     +0.163     +0.025
      +0.145     -0.420     +0.164
      -0.402     +0.102     +0.134
      -0.041     +0.069     -0.012
vibration  10
      +0.018     +0.075     +0.049
      -0.022     -0.107     -0.076
      -0.108     +0.099     -0.009
      +0.030     +0.074     +0.038
      -0.159     +0.566     +0.451
      +0.019     -0.484     -0.285
      -0.021     -0.057     -0.014
      +0.038     +0.194     -0.047
      +0.152     -0.014     -0.048
      +0.080     +0.045     +0.024
vibration  11
      +0.079     +0.015     -0.037
      -0.091     -0.012     +0.078
      -0.313     +0.117     -0.189
      +0.056     +0.006     -0.079
      -0.404     -0.069     -0.208
      +0.065     -0.222     +0.347
      -0.029     -0.025     +0.012
      +0.123     -0.212     +0.109
      +0.194     +0.385     +0.074
      +0.264     +0.291     +0.127
vibration  12
      -0.057     +0.014     -0.004
      +0.063     -0.003     -0.046
      +0.088     -0.065     +0.014
      -0.018     -0.076     +0.050
      +0.134     +0.031     +0.042
      -0.056     +0.127     -0.132
      -0.030     +0.024     -0.001
      -0.444     -0.277     -0.014
      +0.549     +0.172     -0.012
      +0.349     +0.413     +0.114
vibration  13
      -0.024     -0.027     +0.021
      +0.028     +0.049     +0.003
      +0.137     -0.076     +0.091
      -0.023     -0.071     +0.045
      -0.211     +0.062     -0.169
      -0.020     +0.010     -0.022
      -0.034     -0.001     -0.044
      +0.540     +0.423     -0.043
      -0.085     -0.248     -0.017
      +0.401     +0.411     +0.044
vibration  14
      +0.017     +0.074     -0.083
      -0.041     -0.043     +0.065
      -0.298     +0.186     -0.200
      -0.037     -0.041     +0.021
      +0.671     -0.313     +0.364
      +0.002     -0.000     -0.021
      -0.005     +0.001     -0.012
      +0.267     +0.173     +0.008
      +0.062     -0.053     -0.010
      +0.108     +0.110     +0.011
vibration  15
      +0.021     +0.006     -0.006
      -0.042     -0.012     -0.002
      -0.008     +0.003     -0.022
      +0.119     +0.026     +0.022
      +0.091     -0.044     +0.076
      +0.018     -0.071     +0.096
      -0.036     +0.023     -0.020
      -0.384     -0.265     -0.007
      -0.564     -0.508     -0.013
      +0.260     +0.294     +0.027
vibration  16
      +0.004     +0.016     -0.020
      -0.092     +0.055     -0.063
      +0.555     -0.164     +0.217
      +0.006     -0.016     +0.013
      +0.264     -0.060     +0.089
      +0.013     -0.463     +0.523
      +0.000     -0.003     +0.002
      +0.023     +0.046     -0.026
      +0.145     +0.071     +0.011
      -0.025     -0.036     -0.008
vibration  17
      -0.007     +0.004     -0.006
      +0.002     +0.001     +0.006
      +0.041     -0.008     +0.016
      -0.048     +0.067     -0.010
      -0.034     +0.012     -0.014
      -0.006     -0.020     +0.025
      +0.003     +0.007     +0.002
      +0.296     -0.435     +0.469
      +0.320     -0.486     -0.390
      -0.029     -0.026     -0.007
vibration  18
      +0.186     -0.191     +0.211
      -0.232     +0.188     -0.208
      -0.547     +0.005     -0.035
      +0.018     -0.023     +0.027
      +0.381     +0.003     +0.004
      +0.238     +0.289     -0.303
      -0.004     -0.000     -0.002
      +0.061     -0.009     +0.030
      +0.251     -0.022     -0.044
      +0.020     +0.036     +0.021
vibration  19
      -0.000     +0.000     -0.001
      -0.000     -0.001     +0.001
      -0.006     -0.006     +0.008
      -0.032     +0.048     +0.050
      -0.001     +0.008     -0.003
      +0.010     +0.001     -0.000
      +0.001     +0.001     -0.000
      +0.341     -0.520     -0.760
      +0.034     -0.059     +0.159
      -0.006     +0.001     -0.000
vibration  20
      +0.001     -0.000     +0.000
      -0.005     -0.008     +0.008
      +0.006     +0.006     -0.007
      -0.019     +0.028     -0.079
      +0.067     +0.088     -0.094
      -0.019     -0.000     +0.000
      +0.001     -0.001     +0.001
      -0.063     +0.088     +0.102
      +0.278     -0.416     +0.835
      -0.013     +0.006     -0.012
vibration  21
      -0.014     +0.047     -0.053
      +0.009     +0.000     -0.000
      -0.388     -0.515     +0.571
      +0.000     +0.001     -0.003
      -0.047     -0.057     +0.061
      +0.492     +0.010     -0.005
      +0.000     -0.000     +0.000
      -0.009     +0.010     +0.013
      +0.006     -0.012     +0.025
      -0.002     -0.001     -0.001
vibration  22
      +0.020     +0.013     -0.015
      -0.036     -0.051     +0.054
      -0.091     -0.124     +0.137
      +0.004     -0.004     +0.011
      +0.457     +0.566     -0.605
      -0.185     +0.001     -0.004
      -0.000     +0.000     -0.000
      +0.005     -0.009     -0.009
      -0.044     +0.060     -0.118
      +0.003     -0.000     +0.002
vibration  23
      -0.089     -0.019     +0.021
      -0.010     -0.016     +0.017
      +0.187     +0.269     -0.299
      +0.001     -0.001     +0.002
      +0.124     +0.157     -0.168
      +0.851     -0.006     +0.017
      +0.000     +0.000     -0.000
      +0.001     -0.000     +0.001
      -0.009     +0.012     -0.024
      +0.002     +0.003     +0.000
vibration  24
      +0.000     +0.000     -0.000
      +0.000     +0.000     -0.000
      +0.003     +0.001     +0.002
      +0.002     +0.000     +0.002
      +0.001     +0.000     +0.000
      -0.001     -0.000     +0.001
      +0.033     -0.044     +0.030
      +0.002     +0.001     +0.002
      -0.003     +0.008     -0.015
      -0.550     +0.679     -0.481
