[Molden Format]
[FR-COORD] # Coordinates in bohr
  C    -2.268852    +0.883684    -0.087188 
  C    -0.064627    +2.038287    -0.025845 
  H    -3.999620    +1.924777    -0.260299 
  H    -0.101288    +4.064042    -0.139320 
  C    +2.452074    +0.877037    +0.186393 
  O    -2.567601    -1.743380    -0.032224 
  C    +3.010265    -1.535994    -0.141290 
  H    +3.947927    +2.179977    +0.627084 
  H    +4.920118    -2.193816    +0.040476 
  H    +1.589563    -2.890525    -0.615070 
  H    -2.861830    -2.361075    +1.667387 
[FREQ] # Frequencies in cm^-1
 -256.4707
  153.7404
  264.1024
  417.9372
  464.7404
  751.1842
  845.4127
  907.6709
  942.7537
 1111.3297
 1142.6771
 1156.7173
 1172.6673
 1233.4150
 1325.0563
 1419.5970
 1492.9691
 1573.9334
 1611.5812
 1826.2136
 1871.6703
 3314.6372
 3333.6621
 3341.6727
 3366.1598
 3443.4479
 3822.0240
[FR-NORM-COORD] # Displacements in bohr
vibration  1
      +0.005     +0.002     -0.040
      +0.003     +0.004     +0.002
      +0.008     -0.010     -0.109
      +0.007     +0.004     +0.010
      -0.003     -0.004     +0.033
      -0.059     +0.006     +0.007
      -0.007     -0.001     -0.009
      -0.004     -0.021     +0.084
      -0.014     -0.016     -0.002
      -0.000     +0.016     -0.085
      +0.967     -0.074     +0.158
vibration  2
      +0.005     -0.004     -0.086
      +0.004     -0.007     -0.063
      +0.015     -0.014     -0.255
      +0.029     -0.014     -0.217
      -0.023     -0.027     +0.169
      +0.016     +0.000     +0.117
      +0.015     +0.027     -0.153
      -0.091     -0.094     +0.598
      -0.016     -0.016     +0.029
      +0.069     +0.107     -0.551
      -0.265     +0.159     +0.125
vibration  3
      +0.030     +0.032     +0.002
      -0.037     +0.144     -0.017
      -0.090     -0.168     +0.029
      -0.015     +0.142     -0.010
      -0.124     -0.029     +0.007
      +0.407     -0.016     -0.003
      -0.357     -0.089     +0.008
      -0.011     -0.174     +0.052
      -0.419     -0.258     +0.055
      -0.454     +0.051     -0.047
      +0.329     -0.044     -0.025
vibration  4
      +0.092     -0.076     -0.142
      +0.060     -0.005     +0.140
      +0.133     -0.059     -0.449
      -0.048     -0.008     +0.103
      +0.106     +0.103     +0.029
      -0.064     -0.075     +0.046
      -0.135     +0.060     -0.032
      +0.198     +0.090     -0.269
      -0.171     -0.140     -0.408
      -0.378     +0.213     +0.263
      -0.178     +0.123     +0.099
vibration  5
      -0.087     +0.065     -0.148
      -0.079     +0.003     +0.153
      -0.095     +0.005     -0.416
      +0.048     +0.006     +0.174
      -0.098     -0.105     +0.005
      +0.091     +0.065     +0.051
      +0.110     -0.062     -0.028
      -0.065     -0.029     -0.324
      +0.252     +0.240     -0.391
      +0.231     -0.297     +0.282
      +0.018     +0.231     +0.097
vibration  6
      -0.038     +0.022     +0.107
      -0.001     -0.047     -0.080
      -0.019     +0.007     -0.149
      +0.068     -0.073     -0.587
      +0.012     -0.010     +0.148
      +0.017     +0.026     -0.036
      -0.001     +0.013     -0.010
      +0.041     +0.077     -0.214
      +0.058     +0.024     -0.600
      -0.119     +0.040     +0.271
      +0.051     -0.227     -0.126
vibration  7
      +0.234     -0.054     +0.053
      +0.090     +0.189     -0.004
      +0.246     -0.072     -0.121
      +0.072     +0.173     -0.205
      -0.217     -0.041     +0.015
      -0.084     -0.072     -0.011
      -0.050     +0.005     -0.008
      -0.061     -0.180     -0.106
      +0.150     +0.549     -0.096
      +0.325     -0.405     +0.054
      -0.087     -0.117     -0.025
vibration  8
      +0.036     -0.017     -0.083
      +0.036     -0.065     -0.107
      +0.020     +0.086     +0.695
      +0.020     -0.035     +0.483
      -0.055     -0.004     +0.087
      +0.005     +0.012     +0.009
      -0.024     +0.032     +0.009
      -0.066     +0.059     -0.072
      +0.041     +0.126     -0.361
      -0.034     -0.002     +0.138
      +0.023     +0.217     +0.092
vibration  9
      +0.088     -0.083     +0.035
      +0.098     -0.353     +0.083
      +0.289     +0.179     -0.335
      +0.086     -0.379     -0.151
      -0.169     +0.041     -0.090
      +0.055     +0.190     +0.001
      -0.100     +0.125     +0.006
      -0.296     +0.148     -0.016
      -0.078     +0.294     +0.310
      +0.053     +0.020     -0.135
      +0.061     -0.064     -0.103
vibration  10
      -0.102     +0.278     +0.025
      +0.145     -0.086     +0.010
      -0.068     +0.300     -0.122
      +0.721     -0.070     +0.022
      -0.059     -0.005     -0.014
      +0.005     -0.247     -0.019
      -0.032     +0.082     -0.026
      -0.120     +0.065     -0.033
      -0.028     +0.178     +0.216
      -0.042     +0.054     +0.111
      +0.027     +0.179     +0.162
vibration  11
      -0.004     +0.009     +0.091
      +0.009     -0.003     -0.119
      +0.037     -0.041     -0.606
      -0.032     +0.043     +0.712
      -0.002     +0.001     -0.015
      +0.001     +0.006     +0.011
      +0.003     -0.005     +0.027
      -0.047     -0.005     +0.155
      +0.025     +0.000     -0.201
      -0.023     +0.026     +0.013
      -0.035     -0.151     -0.058
vibration  12
      -0.018     +0.020     -0.011
      +0.009     -0.006     +0.024
      -0.015     +0.031     +0.018
      +0.046     -0.009     -0.066
      +0.016     +0.011     -0.039
      +0.001     -0.020     +0.003
      -0.033     -0.023     +0.147
      +0.050     +0.017     -0.172
      +0.076     +0.125     -0.452
      +0.156     +0.113     -0.818
      -0.027     +0.014     +0.011
vibration  13
      -0.000     +0.007     -0.013
      +0.001     -0.007     +0.034
      -0.001     +0.023     +0.091
      +0.016     -0.018     -0.179
      +0.015     +0.016     -0.110
      +0.001     -0.007     -0.004
      -0.011     -0.004     +0.047
      -0.128     -0.124     +0.791
      +0.068     +0.096     -0.431
      -0.044     -0.051     +0.281
      +0.014     +0.040     +0.017
vibration  14
      +0.071     -0.005     +0.001
      -0.003     +0.040     +0.022
      +0.065     -0.024     +0.006
      +0.161     +0.035     -0.051
      -0.128     -0.035     -0.030
      -0.009     -0.008     -0.002
      +0.122     -0.007     +0.030
      -0.428     +0.308     -0.030
      -0.067     -0.575     -0.138
      -0.303     +0.444     -0.039
      -0.009     +0.019     +0.010
vibration  15
      +0.031     -0.010     +0.098
      -0.032     -0.020     -0.013
      +0.055     -0.019     -0.148
      -0.283     -0.029     -0.075
      +0.005     +0.005     +0.009
      +0.006     -0.019     -0.071
      +0.000     -0.017     -0.001
      -0.016     +0.036     -0.012
      +0.001     -0.024     -0.016
      +0.023     -0.036     -0.022
      +0.066     +0.879     +0.295
vibration  16
      -0.022     -0.070     +0.018
      +0.017     +0.014     -0.002
      -0.352     -0.638     -0.004
      +0.619     +0.022     +0.026
      +0.009     -0.020     -0.009
      -0.015     +0.048     -0.016
      -0.009     +0.040     +0.007
      +0.069     -0.093     +0.002
      +0.004     +0.094     +0.017
      -0.041     +0.081     +0.001
      -0.006     +0.201     +0.044
vibration  17
      -0.008     -0.010     +0.003
      -0.015     -0.004     -0.004
      +0.095     +0.165     -0.008
      -0.114     -0.009     -0.008
      -0.061     -0.073     -0.022
      +0.006     -0.004     -0.002
      +0.054     +0.095     +0.027
      +0.472     -0.687     -0.041
      +0.023     +0.045     +0.006
      -0.236     +0.414     +0.024
      +0.010     +0.033     +0.014
vibration  18
      +0.032     +0.110     -0.015
      +0.086     -0.031     +0.010
      -0.341     -0.526     +0.029
      -0.617     -0.041     -0.031
      -0.004     -0.050     -0.005
      -0.013     -0.005     +0.007
      +0.006     -0.013     -0.001
      -0.118     +0.071     -0.011
      +0.087     +0.265     +0.056
      -0.204     +0.213     -0.003
      -0.020     -0.097     -0.030
vibration  19
      +0.004     -0.048     +0.006
      -0.064     +0.038     -0.004
      +0.181     +0.252     -0.016
      +0.164     +0.044     +0.009
      +0.079     -0.087     -0.002
      +0.004     +0.004     -0.002
      -0.019     -0.040     -0.009
      -0.225     +0.261     -0.001
      +0.186     +0.635     +0.143
      -0.384     +0.354     -0.005
      +0.014     +0.028     +0.009
vibration  20
      -0.120     -0.080     +0.005
      +0.160     +0.001     +0.003
      -0.043     +0.085     -0.007
      +0.071     +0.010     -0.011
      -0.164     +0.342     +0.032
      +0.007     +0.013     -0.006
      +0.097     -0.325     -0.043
      +0.337     -0.170     +0.042
      +0.340     +0.303     +0.104
      -0.508     +0.224     -0.030
      +0.011     +0.073     +0.024
vibration  21
      +0.323     +0.237     -0.010
      -0.388     -0.162     -0.017
      +0.050     -0.375     +0.056
      +0.426     -0.201     +0.059
      -0.000     +0.154     +0.016
      -0.019     -0.030     +0.012
      +0.026     -0.122     -0.015
      +0.345     -0.211     +0.019
      +0.127     +0.116     +0.057
      -0.142     +0.029     -0.039
      -0.032     -0.164     -0.046
vibration  22
      -0.007     +0.004     -0.001
      -0.001     -0.024     +0.001
      +0.084     -0.049     +0.009
      +0.000     +0.290     -0.016
      +0.052     +0.046     +0.015
      +0.000     +0.000     +0.000
      -0.023     +0.017     -0.000
      -0.623     -0.546     -0.183
      +0.380     -0.128     +0.037
      -0.097     -0.086     -0.031
      +0.000     -0.000     -0.001
vibration  23
      +0.036     -0.020     +0.004
      -0.000     +0.055     -0.003
      -0.435     +0.255     -0.044
      +0.008     -0.657     +0.036
      +0.002     -0.004     -0.000
      -0.000     -0.001     -0.000
      -0.025     +0.031     +0.002
      -0.016     -0.010     -0.004
      +0.465     -0.157     +0.045
      -0.178     -0.162     -0.057
      +0.001     -0.001     +0.002
vibration  24
      -0.030     +0.016     -0.003
      +0.003     -0.022     +0.001
      +0.346     -0.202     +0.035
      -0.009     +0.274     -0.015
      -0.028     -0.034     -0.010
      +0.001     +0.000     -0.000
      -0.031     +0.045     +0.003
      +0.354     +0.311     +0.104
      +0.592     -0.203     +0.056
      -0.257     -0.236     -0.082
      -0.000     +0.000     -0.000
vibration  25
      +0.062     -0.028     +0.006
      -0.006     -0.057     +0.003
      -0.648     +0.373     -0.065
      -0.002     +0.629     -0.034
      -0.011     -0.009     -0.003
      -0.000     +0.000     -0.000
      -0.001     +0.006     +0.001
      +0.122     +0.101     +0.034
      +0.046     -0.016     +0.004
      -0.043     -0.039     -0.014
      +0.002     -0.002     +0.002
vibration  26
      -0.001     +0.001     -0.000
      -0.000     +0.002     -0.000
      +0.012     -0.007     +0.001
      -0.000     -0.012     +0.001
      +0.007     +0.002     +0.001
      +0.001     -0.000     +0.000
      +0.084     +0.041     +0.021
      -0.057     -0.054     -0.018
      -0.407     +0.144     -0.037
      -0.623     -0.605     -0.206
      -0.000     -0.000     -0.002
vibration  27
      +0.000     -0.001     -0.001
      -0.001     -0.000     +0.000
      +0.002     -0.003     -0.002
      -0.000     -0.001     +0.002
      +0.001     -0.000     -0.000
      +0.010     +0.024     -0.057
      +0.000     +0.000     -0.000
      -0.001     -0.001     +0.000
      -0.001     +0.000     -0.000
      +0.000     -0.001     -0.000
      -0.164     -0.360     +0.916
