[Molden Format]
[FR-COORD] # Coordinates in bohr
  C    +3.782938    -0.573516    -0.133060 
  C    +4.260560    -2.632400    -1.454420 
  H    +5.251041    +0.265009    +0.993990 
  H    +6.073946    -3.535744    -1.388649 
  H    +2.871780    -3.473181    -2.670985 
  C    +1.331226    +0.756038    -0.098974 
  C    -0.892065    -0.370432    -0.091554 
  H    +1.426756    +2.787698    -0.041355 
  C    -3.333555    +1.046175    -0.113552 
  H    -1.029966    -2.397546    -0.044740 
  O    -4.529185    +1.635674    +1.742979 
  H    -4.021651    +1.518790    -1.988096 
[FREQ] # Frequencies in cm^-1
 -216.9853
  120.6086
  172.1005
  230.3414
  328.1043
  581.3833
  620.4350
  792.5757
  912.7989
 1003.4354
 1078.8135
 1112.0090
 1123.6316
 1155.5912
 1176.4128
 1219.7357
 1429.0027
 1461.5006
 1492.5429
 1553.8141
 1611.8059
 1837.4100
 1855.6616
 1905.5156
 3165.5280
 3308.8348
 3319.4772
 3332.9852
 3333.1873
 3400.4103
[FR-NORM-COORD] # Displacements in bohr
vibration  1
      -0.011     +0.012     +0.022
      -0.005     +0.040     -0.023
      -0.001     -0.005     +0.019
      +0.005     +0.059     -0.057
      -0.004     +0.043     -0.026
      -0.023     -0.007     +0.129
      -0.010     -0.033     -0.101
      -0.045     -0.017     +0.421
      -0.078     -0.155     -0.026
      +0.029     -0.047     -0.452
      +0.121     +0.144     +0.007
      -0.371     -0.606     -0.034
vibration  2
      +0.003     -0.067     +0.058
      +0.050     +0.103     -0.187
      -0.055     -0.211     +0.242
      +0.035     +0.070     -0.216
      +0.095     +0.289     -0.367
      +0.006     -0.057     +0.024
      +0.015     -0.071     +0.248
      +0.004     -0.048     -0.247
      +0.011     -0.075     +0.016
      +0.036     -0.066     +0.528
      -0.077     +0.142     -0.110
      +0.098     -0.284     -0.070
vibration  3
      +0.078     +0.050     -0.087
      -0.210     -0.062     -0.024
      +0.281     +0.076     -0.375
      -0.239     -0.134     -0.251
      -0.433     -0.087     +0.248
      +0.106     +0.098     +0.166
      +0.117     +0.075     +0.107
      +0.116     +0.092     +0.289
      +0.042     -0.068     -0.008
      +0.169     +0.066     -0.033
      -0.098     -0.056     -0.104
      +0.085     -0.233     -0.068
vibration  4
      +0.038     +0.051     -0.109
      +0.109     +0.001     -0.007
      +0.115     +0.308     -0.400
      +0.241     +0.251     -0.191
      +0.049     -0.298     +0.268
      -0.055     -0.134     +0.118
      -0.069     -0.115     +0.034
      -0.113     -0.134     +0.291
      +0.027     +0.079     +0.022
      -0.161     -0.112     -0.162
      -0.059     +0.069     -0.032
      +0.216     +0.294     +0.005
vibration  5
      -0.081     +0.121     +0.074
      -0.224     +0.126     +0.026
      -0.053     +0.128     +0.025
      -0.270     +0.028     -0.108
      -0.345     +0.235     +0.090
      -0.109     -0.032     +0.020
      -0.006     -0.213     +0.013
      -0.296     -0.018     -0.131
      +0.170     -0.007     -0.078
      +0.035     -0.201     +0.225
      +0.222     -0.031     -0.044
      +0.366     +0.373     -0.051
vibration  6
      -0.039     +0.051     -0.093
      -0.012     -0.019     +0.028
      -0.160     -0.153     +0.219
      -0.138     -0.239     +0.479
      +0.174     +0.122     -0.283
      -0.010     +0.053     -0.054
      +0.067     -0.099     -0.012
      -0.122     +0.046     +0.302
      +0.089     -0.041     +0.122
      +0.167     -0.111     -0.402
      -0.085     +0.058     -0.018
      +0.285     +0.074     +0.073
vibration  7
      -0.252     -0.062     -0.118
      +0.062     -0.064     -0.029
      -0.225     -0.107     -0.110
      +0.239     +0.303     +0.305
      +0.416     -0.432     -0.178
      -0.085     +0.136     +0.118
      -0.025     +0.108     +0.143
      +0.022     +0.127     +0.177
      +0.079     -0.016     -0.071
      +0.073     +0.104     +0.102
      +0.126     -0.072     -0.046
      +0.103     -0.049     -0.085
vibration  8
      +0.146     +0.095     -0.129
      +0.027     -0.033     +0.003
      +0.042     -0.130     +0.179
      -0.236     -0.529     +0.460
      +0.067     +0.286     -0.266
      -0.024     -0.039     +0.087
      -0.083     +0.002     +0.091
      -0.129     -0.030     +0.100
      -0.097     +0.057     -0.112
      -0.201     +0.010     +0.187
      +0.062     -0.039     +0.009
      -0.171     +0.041     -0.083
vibration  9
      -0.037     +0.033     -0.007
      -0.023     +0.058     +0.033
      -0.168     +0.156     +0.066
      -0.069     -0.024     +0.017
      -0.089     +0.144     +0.048
      +0.023     -0.162     -0.103
      -0.064     +0.122     +0.095
      +0.093     -0.174     +0.173
      +0.149     +0.047     +0.042
      -0.471     +0.132     -0.402
      +0.014     -0.052     -0.037
      -0.083     -0.570     -0.033
vibration  10
      -0.114     +0.054     -0.060
      -0.089     +0.070     +0.017
      -0.041     +0.023     -0.140
      -0.015     +0.255     +0.476
      +0.226     -0.089     -0.219
      +0.149     -0.153     +0.092
      +0.105     -0.029     -0.124
      +0.214     -0.155     -0.123
      -0.007     +0.062     -0.000
      -0.018     -0.008     +0.542
      -0.042     +0.006     +0.021
      -0.228     -0.168     +0.023
vibration  11
      +0.065     +0.004     -0.012
      +0.048     -0.036     -0.041
      +0.078     -0.100     +0.055
      -0.050     -0.236     +0.050
      -0.038     -0.049     +0.062
      -0.122     +0.056     +0.145
      -0.097     +0.055     -0.191
      -0.262     +0.085     -0.502
      +0.198     -0.030     +0.128
      -0.304     +0.087     +0.417
      -0.035     -0.000     -0.032
      +0.048     -0.379     +0.090
vibration  12
      +0.006     +0.007     -0.007
      -0.011     +0.054     -0.055
      -0.015     -0.225     +0.193
      -0.045     +0.005     +0.250
      -0.071     -0.357     +0.303
      +0.015     -0.008     +0.052
      +0.029     -0.027     +0.046
      -0.011     +0.011     -0.591
      -0.019     +0.031     -0.017
      +0.004     -0.040     -0.503
      -0.003     -0.004     +0.009
      -0.059     -0.015     -0.015
vibration  13
      +0.012     +0.004     +0.001
      -0.040     -0.064     +0.076
      +0.145     +0.116     -0.253
      +0.103     +0.200     -0.196
      +0.245     +0.337     -0.524
      -0.008     +0.008     +0.048
      +0.001     -0.015     +0.024
      -0.046     +0.024     -0.463
      +0.006     +0.021     -0.001
      -0.019     -0.023     -0.357
      -0.003     -0.005     +0.002
      -0.040     -0.049     -0.004
vibration  14
      +0.043     +0.044     -0.054
      -0.038     -0.051     +0.048
      -0.093     -0.414     +0.464
      +0.190     +0.369     -0.381
      +0.032     -0.126     +0.024
      -0.014     +0.036     -0.022
      +0.039     -0.068     +0.002
      -0.224     +0.041     +0.173
      +0.019     +0.104     -0.017
      -0.056     -0.059     +0.123
      -0.014     -0.019     +0.008
      -0.228     -0.284     -0.025
vibration  15
      +0.002     -0.065     +0.112
      +0.014     +0.018     -0.074
      +0.307     +0.187     -0.471
      -0.091     -0.176     +0.317
      +0.070     -0.117     -0.044
      -0.040     +0.081     -0.052
      +0.047     -0.105     +0.026
      -0.306     +0.086     +0.204
      +0.030     +0.151     -0.024
      -0.016     -0.100     -0.002
      -0.018     -0.027     +0.011
      -0.315     -0.402     -0.038
vibration  16
      -0.116     -0.007     -0.054
      +0.111     -0.026     +0.022
      -0.408     +0.302     +0.097
      -0.083     -0.424     -0.327
      -0.271     +0.346     +0.179
      -0.005     +0.008     +0.062
      +0.072     -0.045     -0.006
      +0.110     +0.005     -0.163
      +0.002     +0.080     -0.019
      +0.267     -0.056     -0.010
      -0.014     -0.009     +0.011
      -0.169     -0.155     -0.015
vibration  17
      +0.070     +0.016     +0.014
      -0.039     -0.005     -0.016
      -0.022     +0.096     +0.079
      -0.005     +0.061     +0.070
      +0.091     -0.131     -0.076
      -0.085     -0.071     -0.005
      -0.074     +0.044     -0.003
      +0.189     -0.088     +0.016
      +0.036     +0.047     +0.011
      +0.920     -0.017     -0.001
      -0.001     -0.010     -0.007
      -0.060     -0.141     +0.006
vibration  18
      +0.032     +0.032     +0.053
      -0.037     -0.068     -0.065
      -0.389     +0.545     +0.227
      -0.013     -0.045     -0.049
      +0.165     -0.296     -0.150
      +0.027     -0.035     +0.011
      +0.065     +0.054     +0.002
      -0.564     -0.004     -0.017
      -0.017     -0.021     -0.007
      -0.047     +0.065     -0.004
      -0.000     +0.006     +0.004
      +0.014     +0.090     +0.008
vibration  19
      -0.055     -0.026     -0.028
      +0.039     +0.033     +0.038
      +0.244     -0.369     -0.178
      +0.010     -0.009     -0.008
      -0.128     +0.211     +0.112
      +0.008     -0.084     -0.004
      +0.044     +0.091     +0.001
      -0.756     -0.054     -0.005
      -0.009     -0.011     -0.003
      +0.297     +0.081     -0.009
      -0.000     +0.004     +0.001
      +0.018     +0.055     +0.007
vibration  20
      -0.001     -0.000     -0.002
      +0.002     -0.000     +0.000
      +0.001     -0.006     +0.000
      +0.001     +0.000     +0.004
      -0.006     +0.007     +0.004
      +0.003     +0.002     -0.003
      -0.004     -0.002     +0.026
      +0.010     -0.000     +0.020
      +0.056     -0.034     +0.038
      -0.005     -0.001     -0.018
      +0.007     -0.001     -0.074
      -0.771     +0.416     +0.468
vibration  21
      +0.065     -0.101     -0.043
      -0.016     -0.021     -0.021
      -0.219     +0.237     +0.066
      +0.211     +0.505     +0.459
      -0.401     +0.417     +0.145
      -0.011     +0.025     +0.010
      +0.002     -0.004     -0.002
      -0.079     +0.032     -0.002
      +0.001     +0.003     -0.001
      -0.004     -0.004     +0.006
      +0.000     -0.001     +0.000
      -0.001     -0.007     -0.004
vibration  22
      +0.147     -0.303     -0.163
      -0.083     +0.280     +0.177
      -0.295     +0.185     -0.032
      -0.346     -0.184     -0.260
      +0.490     -0.245     -0.036
      -0.178     +0.001     +0.015
      +0.154     +0.035     -0.003
      +0.022     -0.026     +0.022
      +0.001     -0.011     -0.027
      -0.160     +0.076     +0.051
      -0.011     +0.008     +0.017
      -0.033     +0.059     -0.001
vibration  23
      -0.003     +0.137     +0.073
      +0.027     -0.123     -0.076
      +0.274     -0.174     -0.013
      +0.153     +0.096     +0.177
      -0.202     +0.128     -0.024
      -0.365     -0.116     -0.016
      +0.342     +0.097     +0.008
      +0.484     -0.210     +0.045
      +0.032     -0.047     -0.097
      -0.301     +0.188     -0.009
      -0.046     +0.029     +0.070
      -0.074     +0.147     -0.015
vibration  24
      +0.005     +0.021     +0.018
      +0.001     -0.019     -0.012
      +0.062     -0.030     -0.007
      +0.025     +0.019     +0.029
      -0.025     +0.014     -0.011
      -0.126     -0.040     +0.003
      +0.175     +0.015     -0.036
      +0.120     -0.065     -0.034
      -0.420     +0.201     +0.516
      -0.130     +0.049     +0.048
      +0.247     -0.120     -0.376
      +0.383     -0.196     +0.126
vibration  25
      -0.000     -0.000     -0.000
      -0.000     +0.000     +0.000
      +0.001     +0.002     +0.002
      +0.001     -0.000     -0.000
      -0.000     -0.000     -0.001
      -0.000     -0.001     -0.000
      +0.001     +0.002     -0.001
      -0.000     +0.011     +0.000
      -0.028     +0.019     -0.076
      -0.007     -0.021     -0.002
      -0.001     +0.001     +0.001
      +0.343     -0.235     +0.905
vibration  26
      +0.022     +0.015     +0.019
      -0.005     +0.004     +0.001
      -0.278     -0.164     -0.217
      +0.085     -0.043     +0.004
      -0.022     -0.012     -0.019
      -0.009     -0.077     -0.002
      +0.006     +0.013     -0.000
      +0.049     +0.900     +0.026
      +0.000     -0.000     +0.001
      -0.007     -0.136     +0.002
      -0.000     +0.000     +0.000
      -0.006     +0.004     -0.010
vibration  27
      -0.026     -0.009     -0.015
      +0.012     -0.049     -0.032
      +0.288     +0.162     +0.219
      -0.558     +0.269     -0.026
      +0.430     +0.252     +0.371
      -0.003     -0.021     -0.001
      +0.003     +0.009     -0.000
      +0.012     +0.236     +0.007
      +0.000     -0.000     +0.000
      -0.006     -0.104     +0.002
      -0.000     +0.000     +0.000
      -0.002     +0.002     -0.004
vibration  28
      +0.011     +0.008     +0.010
      -0.004     -0.003     -0.004
      -0.136     -0.079     -0.105
      +0.013     -0.008     +0.000
      +0.043     +0.026     +0.036
      -0.004     +0.018     +0.001
      +0.008     +0.080     -0.002
      -0.012     -0.228     -0.006
      +0.001     -0.001     +0.001
      -0.061     -0.947     +0.024
      +0.000     +0.000     -0.000
      -0.005     +0.009     -0.014
vibration  29
      -0.046     -0.034     -0.041
      +0.008     +0.030     +0.026
      +0.569     +0.325     +0.435
      +0.189     -0.090     +0.009
      -0.308     -0.183     -0.267
      -0.003     -0.024     -0.001
      +0.004     +0.022     -0.001
      +0.008     +0.265     +0.008
      +0.001     -0.000     +0.001
      -0.015     -0.246     +0.007
      -0.000     +0.000     +0.000
      -0.005     +0.005     -0.009
vibration  30
      +0.011     +0.007     +0.009
      +0.091     -0.007     +0.033
      -0.117     -0.070     -0.092
      -0.666     +0.339     -0.019
      -0.428     -0.270     -0.384
      -0.000     +0.002     +0.000
      -0.000     +0.001     -0.000
      -0.000     -0.016     -0.001
      -0.000     +0.000     -0.000
      -0.002     -0.018     +0.001
      +0.000     -0.000     -0.000
      +0.000     -0.000     +0.001
