[Molden Format]
[FR-COORD] # Coordinates in bohr
  C    +3.627446    -0.867658    +0.002711 
  C    +5.031080    -1.186663    +2.030409 
  H    +4.240795    -1.595360    -1.793570 
  H    +6.799691    -2.175452    +1.952209 
  H    +4.467890    -0.477861    +3.846538 
  C    +1.165354    +0.496457    +0.012729 
  C    -1.039926    -0.651661    -0.012566 
  H    +1.253152    +2.530215    +0.018467 
  C    -3.500797    +0.732785    -0.013759 
  H    -1.154308    -2.681620    -0.028145 
  O    -4.681371    +1.310071    -1.883673 
  H    -4.216143    +1.191567    +1.853634 
[FREQ] # Frequencies in cm^-1
 -239.8125
 -123.5545
  143.3587
  232.9294
  345.8949
  504.5979
  663.0050
  725.0867
  933.8900
  996.4159
 1073.0563
 1109.5487
 1125.4265
 1151.9639
 1177.5140
 1250.7305
 1419.9243
 1461.7445
 1473.5196
 1553.3122
 1606.7687
 1832.2167
 1874.1593
 1907.1373
 3168.1768
 3305.7232
 3313.2438
 3326.1926
 3327.2121
 3395.3351
[FR-NORM-COORD] # Displacements in bohr
vibration  1
      -0.011     -0.040     +0.030
      +0.067     +0.011     -0.015
      -0.117     -0.131     +0.033
      +0.046     -0.023     -0.044
      +0.148     +0.087     -0.019
      +0.007     -0.015     +0.144
      -0.006     +0.014     -0.130
      +0.028     -0.017     +0.523
      +0.053     +0.119     -0.030
      -0.047     +0.022     -0.532
      -0.103     -0.092     +0.004
      +0.287     +0.456     -0.024
vibration  2
      -0.057     -0.115     +0.042
      +0.114     +0.166     -0.031
      -0.252     -0.445     +0.111
      +0.073     +0.093     -0.029
      +0.299     +0.473     -0.093
      -0.032     -0.068     +0.054
      -0.036     -0.059     -0.052
      -0.015     -0.071     +0.196
      -0.055     -0.098     -0.012
      -0.032     -0.060     -0.149
      +0.058     +0.157     -0.004
      -0.196     -0.405     +0.010
vibration  3
      +0.078     -0.060     +0.005
      -0.135     +0.089     +0.179
      +0.249     -0.179     +0.114
      -0.121     +0.093     +0.450
      -0.339     +0.223     +0.064
      +0.078     -0.056     -0.229
      +0.072     -0.045     -0.243
      +0.085     -0.057     -0.221
      +0.079     -0.026     +0.012
      +0.057     -0.044     -0.231
      -0.144     +0.078     +0.188
      +0.297     -0.112     +0.119
vibration  4
      +0.028     +0.071     -0.037
      -0.009     +0.098     -0.007
      +0.222     +0.370     -0.092
      +0.156     +0.395     -0.021
      -0.210     -0.170     +0.035
      -0.102     -0.191     +0.008
      -0.092     -0.209     +0.029
      -0.214     -0.182     +0.008
      +0.064     +0.085     +0.015
      -0.187     -0.198     -0.006
      +0.083     +0.068     -0.001
      +0.242     +0.446     -0.006
vibration  5
      -0.133     +0.001     -0.121
      -0.243     +0.054     -0.049
      -0.266     -0.255     -0.057
      -0.353     -0.155     +0.170
      -0.268     +0.336     -0.165
      -0.030     +0.092     +0.024
      +0.050     -0.023     +0.001
      -0.073     +0.090     +0.339
      +0.119     -0.032     +0.101
      +0.145     -0.021     -0.319
      +0.222     -0.074     +0.030
      +0.125     +0.094     +0.068
vibration  6
      +0.110     -0.107     -0.131
      -0.044     +0.053     +0.000
      +0.264     +0.089     -0.153
      +0.121     +0.332     +0.275
      -0.428     -0.021     -0.088
      +0.087     -0.086     +0.055
      -0.024     +0.118     +0.060
      +0.249     -0.092     +0.329
      -0.109     +0.032     +0.054
      -0.133     +0.121     -0.225
      +0.001     -0.023     -0.038
      -0.339     -0.177     +0.014
vibration  7
      +0.070     +0.033     -0.125
      -0.082     +0.015     -0.049
      -0.158     -0.134     -0.129
      -0.214     -0.240     +0.303
      -0.226     +0.323     -0.212
      +0.079     +0.000     +0.200
      +0.135     -0.137     +0.171
      -0.033     +0.005     +0.062
      +0.052     -0.048     -0.189
      +0.240     -0.145     +0.403
      -0.179     +0.110     -0.023
      +0.201     +0.078     -0.154
vibration  8
      -0.176     -0.126     +0.048
      -0.043     +0.045     -0.045
      -0.031     +0.295     -0.073
      +0.266     +0.618     -0.230
      -0.194     -0.309     +0.046
      +0.029     +0.014     +0.071
      +0.056     +0.060     -0.021
      +0.199     +0.004     -0.155
      +0.115     -0.038     -0.072
      +0.104     +0.057     +0.227
      -0.017     +0.002     +0.028
      +0.154     -0.152     -0.025
vibration  9
      +0.017     +0.098     -0.013
      -0.024     +0.011     -0.021
      -0.115     +0.021     -0.025
      -0.186     -0.279     +0.048
      +0.027     +0.139     -0.056
      +0.005     -0.138     +0.100
      -0.076     +0.097     -0.093
      -0.021     -0.133     -0.181
      +0.133     +0.056     -0.032
      -0.492     +0.112     +0.383
      +0.014     -0.050     +0.033
      -0.090     -0.543     +0.033
vibration  10
      +0.091     -0.088     -0.044
      +0.098     -0.056     +0.007
      -0.082     +0.027     -0.153
      +0.210     +0.105     +0.538
      -0.340     +0.133     -0.193
      -0.129     +0.136     +0.100
      -0.094     +0.019     -0.123
      -0.173     +0.143     -0.312
      -0.013     -0.054     +0.015
      +0.044     +0.011     +0.349
      +0.044     -0.006     +0.018
      +0.197     +0.193     +0.034
vibration  11
      -0.053     +0.044     +0.026
      -0.057     +0.025     -0.036
      -0.117     +0.157     -0.038
      -0.124     -0.077     -0.122
      +0.038     +0.091     -0.036
      +0.144     -0.077     +0.142
      +0.121     -0.073     -0.195
      +0.247     -0.081     -0.576
      -0.218     +0.059     +0.145
      +0.287     -0.091     +0.303
      +0.035     -0.004     -0.038
      -0.134     +0.335     +0.104
vibration  12
      -0.010     -0.011     +0.009
      -0.003     -0.027     +0.002
      +0.057     +0.228     -0.067
      +0.011     -0.006     +0.059
      +0.096     +0.276     -0.085
      -0.006     -0.006     +0.049
      -0.007     +0.009     +0.064
      -0.010     -0.002     -0.631
      +0.023     -0.004     -0.014
      -0.037     +0.017     -0.656
      -0.005     +0.001     +0.005
      -0.008     -0.063     -0.012
vibration  13
      -0.002     -0.015     -0.002
      -0.056     -0.091     +0.024
      +0.241     +0.366     -0.073
      +0.121     +0.233     -0.081
      +0.391     +0.643     -0.124
      -0.003     +0.002     -0.023
      -0.001     -0.003     -0.018
      -0.008     +0.003     +0.277
      -0.001     +0.003     +0.001
      +0.008     -0.005     +0.235
      -0.000     -0.001     -0.001
      -0.000     +0.003     +0.002
vibration  14
      -0.029     -0.064     +0.006
      +0.026     +0.094     -0.012
      +0.332     +0.450     -0.079
      -0.334     -0.554     +0.015
      +0.073     -0.035     +0.050
      +0.003     -0.028     -0.002
      -0.054     +0.072     +0.005
      +0.210     -0.037     +0.093
      -0.014     -0.115     -0.021
      +0.033     +0.067     +0.062
      +0.016     +0.020     +0.011
      +0.249     +0.299     -0.023
vibration  15
      -0.071     -0.093     +0.041
      +0.084     +0.045     -0.025
      +0.084     +0.490     -0.144
      -0.123     -0.349     +0.314
      -0.187     -0.006     -0.083
      -0.025     +0.058     -0.042
      +0.077     -0.110     -0.005
      -0.205     +0.063     +0.144
      +0.026     +0.163     +0.027
      +0.066     -0.109     +0.031
      -0.024     -0.027     -0.015
      -0.346     -0.414     +0.028
vibration  16
      +0.084     -0.104     -0.092
      -0.076     +0.067     +0.041
      +0.542     -0.211     +0.106
      -0.148     -0.044     -0.461
      +0.351     -0.189     +0.259
      -0.059     +0.085     +0.094
      -0.006     -0.041     -0.029
      -0.191     +0.094     -0.193
      +0.020     +0.054     +0.004
      +0.044     -0.042     +0.067
      -0.003     -0.011     -0.001
      -0.092     -0.160     +0.014
vibration  17
      +0.010     +0.037     -0.010
      +0.007     -0.011     +0.002
      +0.031     -0.068     +0.036
      +0.005     -0.021     +0.054
      +0.019     +0.024     -0.005
      -0.086     -0.054     +0.001
      -0.074     +0.017     +0.003
      +0.444     -0.084     -0.004
      +0.037     +0.054     -0.010
      +0.855     -0.031     +0.000
      -0.002     -0.011     +0.006
      -0.067     -0.164     -0.003
vibration  18
      -0.039     +0.039     +0.085
      +0.010     -0.031     -0.116
      +0.685     -0.264     +0.462
      +0.014     -0.006     +0.016
      -0.341     +0.127     -0.293
      +0.003     +0.007     +0.017
      +0.001     -0.002     -0.001
      -0.008     +0.007     -0.007
      -0.004     -0.002     -0.000
      -0.048     +0.002     +0.008
      +0.000     +0.000     -0.001
      +0.025     -0.004     +0.011
vibration  19
      -0.006     -0.016     +0.005
      +0.002     +0.001     -0.002
      +0.013     +0.004     +0.005
      -0.002     -0.003     -0.013
      -0.025     -0.001     -0.012
      +0.007     -0.099     -0.002
      +0.041     +0.112     -0.000
      -0.875     -0.062     +0.000
      -0.007     -0.010     +0.002
      +0.437     +0.098     +0.005
      +0.000     +0.004     -0.000
      +0.005     +0.061     -0.014
vibration  20
      -0.001     -0.001     -0.004
      -0.001     +0.001     +0.002
      -0.010     +0.003     -0.009
      +0.001     +0.002     +0.009
      +0.015     -0.007     +0.011
      -0.002     -0.003     -0.004
      +0.004     +0.003     +0.026
      -0.016     -0.001     +0.021
      -0.056     +0.033     +0.037
      +0.008     +0.000     -0.017
      -0.006     +0.001     -0.075
      +0.770     -0.407     +0.477
vibration  21
      +0.100     -0.038     +0.075
      -0.006     +0.008     +0.022
      -0.240     +0.110     -0.092
      -0.115     -0.092     -0.708
      -0.514     +0.229     -0.243
      -0.003     +0.015     -0.014
      -0.029     -0.007     +0.003
      +0.002     +0.020     +0.022
      +0.004     +0.006     -0.002
      +0.053     -0.014     -0.013
      +0.002     -0.002     +0.002
      +0.009     -0.026     +0.008
vibration  22
      -0.180     +0.064     -0.217
      +0.180     -0.048     +0.242
      +0.265     -0.163     -0.023
      +0.121     -0.180     -0.416
      -0.441     +0.260     -0.024
      -0.195     -0.072     +0.019
      +0.224     +0.060     -0.007
      +0.229     -0.123     -0.031
      +0.012     -0.028     +0.054
      -0.217     +0.115     +0.033
      -0.026     +0.017     -0.040
      -0.040     +0.092     +0.009
vibration  23
      +0.229     -0.059     +0.191
      -0.145     +0.034     -0.195
      -0.225     +0.099     +0.015
      -0.135     +0.086     +0.241
      +0.302     -0.148     -0.030
      -0.384     -0.085     -0.019
      +0.329     +0.102     -0.005
      +0.330     -0.171     +0.009
      +0.053     -0.053     +0.124
      -0.273     +0.187     -0.008
      -0.056     +0.033     -0.087
      -0.104     +0.153     +0.021
vibration  24
      -0.036     +0.010     -0.014
      +0.015     -0.004     +0.017
      +0.019     +0.001     +0.007
      +0.018     +0.001     -0.004
      -0.029     +0.006     +0.003
      +0.166     +0.046     +0.009
      -0.210     -0.029     -0.037
      -0.122     +0.079     -0.051
      +0.412     -0.193     +0.510
      +0.154     -0.067     +0.040
      -0.239     +0.115     -0.371
      -0.380     +0.180     +0.118
vibration  25
      +0.000     +0.000     -0.000
      +0.000     -0.000     +0.000
      -0.000     +0.000     +0.002
      -0.001     +0.001     +0.000
      +0.001     -0.001     -0.002
      +0.000     +0.001     -0.000
      -0.001     -0.002     -0.001
      +0.000     -0.010     -0.000
      +0.029     -0.019     -0.076
      +0.007     +0.023     -0.003
      +0.001     -0.000     +0.001
      -0.357     +0.229     +0.902
vibration  26
      -0.000     -0.001     -0.004
      +0.003     -0.000     +0.006
      -0.012     +0.012     +0.038
      -0.053     +0.029     +0.005
      +0.023     -0.028     -0.069
      -0.010     -0.084     -0.001
      +0.007     +0.014     +0.000
      +0.050     +0.979     +0.004
      +0.000     -0.001     -0.001
      -0.006     -0.140     -0.001
      -0.000     +0.000     -0.000
      -0.007     +0.004     +0.011
vibration  27
      +0.018     -0.019     -0.042
      -0.032     +0.009     -0.040
      -0.183     +0.218     +0.538
      +0.512     -0.288     -0.031
      -0.151     +0.185     +0.467
      -0.001     -0.004     -0.000
      +0.000     +0.003     +0.000
      +0.002     +0.044     -0.002
      +0.000     -0.000     -0.000
      -0.001     -0.038     -0.001
      -0.000     +0.000     +0.000
      -0.001     +0.001     +0.002
vibration  28
      -0.010     +0.016     +0.049
      -0.013     -0.001     -0.038
      +0.171     -0.207     -0.513
      +0.221     -0.125     -0.014
      -0.123     +0.153     +0.388
      +0.003     -0.013     -0.000
      -0.005     -0.052     -0.000
      +0.007     +0.164     +0.002
      -0.001     +0.000     +0.001
      +0.033     +0.613     +0.005
      -0.000     -0.000     -0.000
      +0.003     -0.005     -0.009
vibration  29
      +0.008     -0.014     -0.042
      +0.010     +0.001     +0.029
      -0.151     +0.179     +0.443
      -0.163     +0.092     +0.010
      +0.094     -0.117     -0.296
      +0.004     -0.003     +0.000
      -0.007     -0.066     -0.001
      +0.006     +0.054     -0.001
      -0.001     +0.001     +0.001
      +0.041     +0.769     +0.007
      +0.000     -0.000     +0.000
      +0.007     -0.009     -0.016
vibration  30
      -0.004     +0.005     +0.014
      -0.069     +0.049     +0.049
      +0.045     -0.056     -0.142
      +0.647     -0.360     -0.021
      +0.170     -0.221     -0.582
      +0.001     -0.001     +0.000
      +0.000     -0.000     -0.000
      +0.001     +0.001     +0.001
      +0.000     -0.000     +0.000
      -0.000     +0.003     +0.000
      -0.000     +0.000     -0.000
      -0.000     +0.000     -0.000
