[Molden Format]
[FR-COORD] # Coordinates in bohr
  C    +3.417929    -1.144493    +0.348984 
  C    +4.818511    -1.462915    -1.680694 
  H    +4.058030    -1.825716    +2.154750 
  H    +6.611135    -2.405821    -1.592932 
  H    +4.228470    -0.800624    -3.505393 
  C    +0.929034    +0.148999    +0.334255 
  C    -1.270048    -1.029749    +0.343104 
  H    +0.922252    +2.183422    +0.334848 
  C    -3.648118    +0.424919    +0.345922 
  H    -1.405453    -3.051715    +0.340378 
  O    -3.757454    +2.714893    +0.352932 
  H    -5.352921    -0.713432    +0.339448 
[FREQ] # Frequencies in cm^-1
 -161.0552
  143.2599
  212.3514
  251.2865
  368.6056
  506.7325
  725.1586
  790.1401
  972.0787
 1037.8952
 1072.7520
 1118.8391
 1139.5103
 1163.1123
 1192.1924
 1255.2258
 1423.3011
 1460.1508
 1469.5634
 1566.9604
 1608.6215
 1815.1611
 1858.7240
 1909.3329
 3188.0647
 3312.9642
 3324.6025
 3327.7959
 3369.0233
 3398.3550
[FR-NORM-COORD] # Displacements in bohr
vibration  1
      -0.055     -0.121     -0.050
      +0.110     +0.129     +0.023
      -0.269     -0.473     -0.109
      +0.050     +0.016     +0.029
      +0.304     +0.443     +0.074
      -0.015     -0.045     -0.097
      -0.036     -0.007     +0.133
      +0.026     -0.046     -0.381
      -0.016     +0.019     +0.060
      -0.066     -0.006     +0.370
      +0.008     +0.020     -0.058
      -0.028     +0.036     +0.124
vibration  2
      +0.012     -0.057     +0.041
      -0.170     +0.161     -0.121
      +0.173     -0.196     -0.071
      -0.140     +0.194     -0.390
      -0.365     +0.328     +0.002
      +0.006     -0.074     +0.271
      -0.001     -0.059     +0.088
      +0.006     -0.074     +0.470
      +0.035     +0.001     +0.001
      -0.033     -0.056     -0.088
      +0.112     +0.006     -0.212
      -0.001     +0.055     +0.100
vibration  3
      +0.028     -0.139     -0.005
      -0.013     -0.082     -0.044
      -0.097     -0.497     -0.097
      -0.160     -0.372     -0.169
      +0.094     +0.257     +0.044
      +0.149     +0.132     +0.105
      +0.125     +0.175     +0.017
      +0.284     +0.131     +0.192
      +0.019     -0.009     -0.021
      +0.183     +0.168     -0.079
      -0.259     -0.025     -0.028
      +0.146     -0.203     -0.066
vibration  4
      +0.005     +0.015     +0.019
      -0.072     +0.004     -0.034
      +0.036     -0.003     -0.001
      -0.079     -0.017     -0.114
      -0.140     +0.017     -0.008
      +0.007     +0.013     +0.002
      +0.018     -0.005     +0.164
      -0.007     +0.012     -0.304
      +0.018     -0.011     -0.196
      +0.031     -0.006     +0.406
      +0.026     -0.012     +0.083
      +0.017     -0.006     -0.787
vibration  5
      +0.165     -0.052     -0.034
      +0.157     +0.008     -0.062
      +0.421     +0.294     +0.008
      +0.352     +0.380     -0.018
      -0.033     -0.311     -0.117
      +0.033     -0.205     +0.065
      -0.082     -0.012     +0.073
      +0.105     -0.197     +0.117
      -0.077     +0.106     -0.026
      -0.274     -0.002     +0.044
      -0.180     +0.102     -0.004
      -0.054     +0.066     -0.167
vibration  6
      -0.061     +0.076     -0.183
      +0.134     -0.070     -0.041
      -0.103     -0.029     -0.200
      +0.035     -0.233     +0.320
      +0.517     -0.109     -0.176
      -0.078     +0.080     +0.150
      -0.043     -0.007     +0.118
      -0.146     +0.079     +0.475
      -0.048     -0.026     -0.013
      +0.023     -0.010     -0.169
      +0.056     -0.022     -0.022
      -0.080     +0.027     -0.256
vibration  7
      +0.153     +0.154     +0.057
      +0.015     -0.037     -0.023
      -0.042     -0.290     -0.043
      -0.302     -0.660     -0.222
      +0.146     +0.349     +0.074
      -0.020     -0.043     +0.008
      -0.020     -0.113     -0.028
      -0.256     -0.041     -0.096
      -0.034     +0.035     -0.003
      -0.103     -0.109     +0.035
      -0.031     +0.045     +0.004
      -0.063     +0.075     +0.060
vibration  8
      -0.195     +0.091     -0.084
      -0.090     +0.033     +0.045
      -0.248     +0.093     -0.064
      -0.126     +0.002     +0.391
      +0.183     -0.072     -0.078
      +0.006     -0.135     -0.014
      +0.135     -0.195     +0.037
      -0.219     -0.136     +0.156
      +0.371     +0.099     +0.011
      -0.073     -0.175     -0.127
      -0.170     +0.104     -0.007
      +0.475     -0.068     -0.101
vibration  9
      -0.023     +0.002     -0.021
      -0.012     +0.010     -0.030
      +0.178     -0.087     -0.125
      -0.010     +0.031     +0.261
      +0.212     -0.134     -0.151
      -0.009     +0.002     +0.159
      -0.005     +0.005     -0.118
      -0.006     +0.001     -0.398
      +0.020     -0.000     -0.084
      -0.017     +0.006     +0.622
      -0.002     -0.002     +0.030
      +0.026     -0.013     +0.440
vibration  10
      -0.021     -0.079     -0.008
      +0.012     -0.029     -0.001
      -0.032     -0.026     +0.017
      +0.195     +0.313     -0.054
      -0.099     -0.022     +0.035
      +0.004     +0.139     +0.013
      +0.185     -0.246     -0.008
      -0.177     +0.135     -0.003
      -0.157     +0.045     -0.010
      +0.639     -0.285     +0.080
      -0.032     +0.106     +0.003
      -0.286     +0.239     +0.043
vibration  11
      -0.061     +0.080     -0.022
      -0.114     +0.075     +0.024
      +0.097     +0.052     -0.094
      -0.296     -0.224     +0.501
      +0.289     -0.072     -0.148
      +0.193     -0.152     -0.027
      +0.090     +0.021     +0.013
      +0.459     -0.155     -0.042
      -0.186     -0.001     +0.020
      +0.159     +0.005     -0.143
      +0.027     +0.005     -0.006
      -0.228     +0.060     -0.084
vibration  12
      +0.017     +0.022     +0.010
      +0.035     +0.071     +0.010
      -0.198     -0.494     -0.110
      -0.041     -0.076     +0.007
      -0.314     -0.658     -0.141
      -0.005     +0.011     +0.028
      +0.001     -0.004     +0.010
      -0.025     +0.010     -0.261
      +0.002     +0.000     +0.017
      +0.005     -0.004     -0.258
      -0.001     +0.002     -0.004
      +0.001     +0.003     -0.051
vibration  13
      +0.022     +0.005     +0.019
      -0.046     -0.061     -0.025
      +0.142     -0.021     -0.035
      +0.126     +0.276     +0.146
      +0.240     +0.256     -0.001
      -0.015     +0.014     +0.060
      -0.010     +0.000     +0.023
      -0.054     +0.015     -0.635
      +0.013     -0.001     +0.034
      -0.013     +0.002     -0.558
      -0.001     -0.001     -0.008
      +0.016     -0.004     -0.101
vibration  14
      +0.048     +0.107     +0.017
      -0.064     -0.094     -0.014
      -0.294     -0.544     -0.109
      +0.277     +0.572     +0.155
      +0.045     +0.070     +0.012
      +0.028     -0.028     -0.038
      -0.002     +0.020     -0.009
      +0.006     -0.028     +0.297
      -0.013     -0.002     -0.003
      -0.076     +0.024     +0.210
      +0.006     -0.008     +0.001
      -0.007     -0.013     -0.003
vibration  15
      +0.013     -0.025     +0.016
      -0.010     +0.015     -0.011
      +0.151     -0.032     -0.034
      -0.032     -0.022     +0.098
      +0.083     -0.046     -0.060
      -0.019     +0.022     +0.025
      -0.006     -0.006     -0.140
      -0.044     +0.022     -0.028
      +0.011     -0.001     +0.215
      +0.003     -0.007     +0.410
      -0.002     +0.002     -0.050
      +0.012     +0.005     -0.842
vibration  16
      -0.091     +0.092     -0.095
      +0.079     -0.062     +0.041
      -0.525     +0.211     +0.104
      +0.144     +0.037     -0.458
      -0.350     +0.180     +0.253
      +0.061     -0.075     +0.117
      +0.026     +0.019     -0.049
      +0.172     -0.078     -0.314
      -0.033     +0.001     +0.031
      -0.009     +0.019     +0.074
      +0.006     -0.003     -0.007
      -0.025     -0.012     -0.105
vibration  17
      -0.014     -0.039     -0.015
      -0.007     +0.010     +0.005
      -0.036     +0.068     +0.029
      -0.006     +0.021     +0.058
      -0.037     -0.023     +0.006
      +0.094     +0.019     +0.003
      +0.093     +0.016     -0.000
      -0.715     +0.029     -0.010
      -0.063     +0.004     +0.000
      -0.661     +0.065     -0.002
      +0.015     -0.012     -0.000
      -0.008     -0.097     -0.000
vibration  18
      +0.042     -0.037     +0.085
      -0.012     +0.029     -0.117
      -0.690     +0.253     +0.462
      -0.015     +0.007     +0.028
      +0.339     -0.124     -0.293
      +0.002     +0.003     +0.019
      -0.004     -0.007     -0.003
      +0.051     +0.004     -0.017
      +0.002     -0.002     +0.001
      -0.006     -0.009     +0.009
      -0.001     +0.000     -0.000
      -0.014     +0.020     -0.002
vibration  19
      +0.001     -0.005     +0.009
      +0.005     -0.000     -0.009
      -0.021     -0.003     +0.018
      -0.000     -0.012     -0.016
      +0.022     -0.006     -0.017
      -0.033     -0.116     +0.001
      +0.016     +0.120     -0.001
      -0.649     -0.118     +0.006
      -0.013     -0.004     +0.000
      +0.704     +0.084     +0.004
      +0.008     +0.016     +0.000
      +0.094     -0.149     -0.001
vibration  20
      +0.006     -0.005     -0.012
      -0.002     +0.001     +0.002
      -0.024     +0.014     +0.004
      -0.011     -0.005     +0.065
      -0.054     +0.020     +0.029
      +0.027     -0.013     +0.002
      -0.006     +0.036     -0.000
      -0.171     -0.010     -0.003
      +0.075     +0.008     -0.000
      +0.053     +0.039     +0.002
      -0.033     -0.078     -0.000
      -0.462     +0.853     +0.002
vibration  21
      -0.100     +0.037     +0.074
      +0.006     -0.007     +0.022
      +0.230     -0.099     -0.087
      +0.108     +0.082     -0.706
      +0.519     -0.221     -0.241
      +0.006     -0.016     -0.014
      +0.033     +0.009     +0.003
      -0.003     -0.020     +0.027
      -0.003     +0.006     +0.001
      -0.069     +0.019     -0.011
      -0.002     -0.012     -0.000
      -0.053     +0.084     -0.003
vibration  22
      +0.104     -0.043     -0.157
      -0.133     +0.036     +0.183
      -0.175     +0.119     -0.032
      -0.080     +0.149     -0.363
      +0.359     -0.209     -0.032
      +0.307     +0.095     +0.014
      -0.330     -0.077     -0.003
      -0.355     +0.135     -0.021
      +0.061     -0.166     -0.002
      +0.305     -0.158     +0.022
      -0.010     +0.118     +0.001
      -0.009     -0.054     +0.005
vibration  23
      -0.273     +0.078     +0.254
      +0.200     -0.051     -0.266
      +0.320     -0.148     +0.013
      +0.174     -0.137     +0.367
      -0.447     +0.226     -0.014
      +0.219     +0.031     -0.027
      -0.162     -0.034     +0.005
      -0.169     +0.052     +0.044
      +0.040     -0.184     +0.002
      +0.073     -0.070     -0.024
      -0.009     +0.123     +0.000
      -0.098     +0.028     -0.007
vibration  24
      +0.071     -0.009     -0.046
      -0.032     +0.006     +0.045
      -0.051     +0.011     -0.006
      -0.040     +0.001     -0.047
      +0.065     -0.019     +0.016
      -0.206     -0.067     +0.006
      +0.204     +0.114     -0.001
      +0.195     -0.107     -0.008
      +0.044     -0.491     -0.002
      -0.399     +0.196     +0.002
      -0.017     +0.313     +0.001
      -0.465     +0.268     +0.002
vibration  25
      -0.000     +0.000     -0.000
      -0.000     +0.000     +0.000
      +0.000     -0.001     +0.004
      +0.002     -0.001     +0.000
      -0.000     +0.000     -0.002
      -0.000     -0.000     -0.000
      +0.002     +0.005     -0.000
      +0.002     +0.006     -0.000
      -0.071     -0.046     -0.000
      -0.016     -0.070     -0.000
      +0.000     +0.001     +0.000
      +0.836     +0.538     +0.003
vibration  26
      +0.021     -0.021     +0.054
      -0.028     +0.009     +0.030
      -0.236     +0.252     -0.665
      +0.451     -0.238     +0.029
      -0.125     +0.137     -0.371
      -0.000     +0.001     +0.000
      -0.000     +0.001     -0.000
      -0.000     -0.009     +0.002
      +0.000     -0.000     +0.000
      -0.000     -0.011     +0.000
      +0.000     +0.000     -0.000
      +0.000     -0.000     -0.000
vibration  27
      -0.007     +0.012     -0.043
      -0.018     +0.001     +0.042
      +0.155     -0.165     +0.441
      +0.301     -0.159     +0.021
      -0.146     +0.162     -0.440
      +0.004     +0.053     -0.000
      -0.004     -0.006     -0.000
      -0.008     -0.622     -0.001
      -0.000     +0.001     -0.000
      +0.002     +0.056     +0.000
      -0.000     -0.000     +0.000
      +0.004     +0.002     +0.000
vibration  28
      +0.006     -0.010     +0.034
      +0.015     -0.001     -0.034
      -0.122     +0.133     -0.347
      -0.245     +0.131     -0.016
      +0.119     -0.132     +0.360
      +0.004     +0.066     -0.000
      -0.004     -0.005     +0.000
      -0.006     -0.774     +0.002
      -0.001     +0.001     +0.000
      +0.001     +0.040     -0.000
      -0.000     -0.001     -0.000
      +0.010     +0.004     -0.000
vibration  29
      -0.000     +0.000     -0.002
      -0.000     +0.000     +0.000
      +0.009     -0.007     +0.018
      +0.006     -0.003     +0.000
      -0.001     +0.001     -0.002
      -0.006     +0.004     +0.000
      +0.009     +0.086     +0.000
      -0.004     -0.071     +0.000
      +0.007     +0.002     +0.000
      -0.068     -0.989     -0.001
      +0.000     -0.000     -0.000
      -0.061     -0.033     -0.000
vibration  30
      +0.004     -0.004     +0.012
      +0.070     -0.046     +0.050
      -0.042     +0.047     -0.128
      -0.654     +0.343     -0.025
      -0.180     +0.209     -0.590
      -0.001     +0.001     +0.000
      +0.000     +0.001     -0.000
      -0.001     -0.002     +0.001
      -0.000     +0.000     +0.000
      -0.000     -0.006     +0.000
      +0.000     -0.000     -0.000
      +0.001     +0.001     -0.000
