[Molden Format]
[FR-COORD] # Coordinates in bohr
  C    +2.477637    -0.446036    -0.000002 
  C    -0.030552    +1.080175    +0.000003 
  O    -2.290051    -0.463320    -0.000002 
  H    +2.102567    -2.462312    -0.000009 
  H    +3.602596    -0.029255    -1.657042 
  H    +3.602577    -0.029300    +1.657052 
  H    -0.108963    +2.280735    +1.650035 
  H    -0.108970    +2.280757    -1.650012 
  H    -1.882071    -2.237992    -0.000004 
[FREQ] # Frequencies in cm^-1
 -394.6221
 -295.7419
  483.0942
  926.5358
  950.0040
 1071.8931
 1166.5964
 1281.5063
 1405.2341
 1405.4324
 1551.0703
 1585.5561
 1660.3363
 1671.8936
 1718.5191
 3201.6705
 3229.1402
 3252.1578
 3258.9109
 3283.1886
 3902.0434
[FR-NORM-COORD] # Displacements in bohr
vibration  1
      +0.000     +0.000     -0.021
      -0.000     -0.000     +0.048
      +0.000     +0.000     -0.084
      -0.000     +0.000     -0.090
      -0.014     +0.038     -0.021
      +0.014     -0.038     -0.021
      +0.047     -0.035     +0.083
      -0.047     +0.035     +0.083
      -0.000     -0.000     +0.979
vibration  2
      +0.000     +0.000     +0.011
      +0.000     +0.000     -0.068
      +0.000     -0.000     +0.054
      +0.000     +0.000     -0.546
      +0.265     +0.390     +0.289
      -0.265     -0.390     +0.289
      +0.016     +0.117     -0.153
      -0.016     -0.117     -0.153
      +0.000     -0.000     +0.090
vibration  3
      +0.234     +0.052     -0.000
      +0.015     -0.187     -0.000
      -0.217     +0.087     +0.000
      +0.582     -0.013     -0.000
      +0.158     +0.277     +0.003
      +0.158     +0.277     -0.003
      +0.041     -0.170     -0.013
      +0.041     -0.170     +0.013
      -0.499     +0.015     +0.000
vibration  4
      +0.268     -0.102     +0.000
      -0.077     +0.278     +0.000
      -0.169     -0.109     -0.000
      -0.238     -0.013     -0.000
      +0.324     -0.383     -0.036
      +0.324     -0.383     +0.036
      -0.155     +0.213     +0.036
      -0.155     +0.213     -0.036
      +0.301     -0.011     -0.000
vibration  5
      -0.000     +0.000     +0.045
      +0.000     -0.000     +0.087
      +0.000     +0.000     -0.031
      -0.000     +0.000     -0.212
      -0.399     +0.181     -0.186
      +0.399     -0.181     -0.186
      -0.167     +0.409     -0.221
      +0.167     -0.409     -0.221
      -0.000     -0.000     -0.052
vibration  6
      -0.048     +0.180     +0.000
      +0.259     -0.029     -0.000
      -0.113     -0.082     +0.000
      -0.695     +0.302     +0.000
      +0.049     -0.274     -0.042
      +0.049     -0.274     +0.042
      +0.092     -0.053     -0.003
      +0.092     -0.053     +0.003
      -0.318     -0.145     +0.000
vibration  7
      +0.101     +0.057     +0.000
      -0.155     -0.092     -0.000
      +0.123     +0.068     +0.000
      -0.489     +0.158     +0.000
      +0.136     -0.306     -0.065
      +0.136     -0.306     +0.065
      -0.299     -0.079     -0.009
      -0.299     -0.079     +0.009
      -0.491     -0.057     -0.000
vibration  8
      -0.000     -0.000     +0.127
      -0.000     -0.000     -0.162
      -0.000     +0.000     +0.035
      +0.000     -0.000     -0.262
      -0.415     +0.146     -0.127
      +0.415     -0.146     -0.127
      -0.152     -0.433     +0.141
      +0.152     +0.433     +0.141
      +0.000     +0.000     +0.084
vibration  9
      -0.000     -0.000     +0.065
      +0.000     +0.000     -0.012
      +0.000     -0.000     -0.026
      +0.000     -0.000     -0.072
      -0.139     +0.034     -0.024
      +0.139     -0.033     -0.024
      +0.683     +0.048     -0.005
      -0.684     -0.047     -0.005
      -0.002     -0.001     -0.087
vibration  10
      -0.018     -0.077     -0.000
      +0.064     +0.117     +0.000
      +0.038     -0.049     +0.000
      +0.146     -0.087     +0.000
      -0.027     +0.205     +0.060
      -0.028     +0.205     -0.060
      -0.209     +0.108     +0.002
      -0.204     +0.108     -0.002
      -0.828     -0.236     +0.000
vibration  11
      +0.009     +0.023     +0.000
      -0.111     +0.027     -0.000
      +0.016     -0.040     -0.000
      -0.031     +0.031     +0.000
      +0.010     -0.033     -0.015
      +0.010     -0.033     +0.015
      +0.649     +0.093     -0.005
      +0.649     +0.093     +0.005
      -0.328     -0.115     -0.000
vibration  12
      +0.102     -0.063     +0.000
      +0.003     -0.009     -0.000
      -0.004     +0.001     -0.000
      -0.566     +0.086     +0.000
      -0.385     +0.373     -0.193
      -0.385     +0.373     +0.193
      +0.038     -0.004     -0.001
      +0.038     -0.004     +0.001
      +0.076     +0.018     +0.000
vibration  13
      -0.000     -0.000     -0.049
      -0.000     +0.000     -0.019
      -0.000     +0.000     -0.000
      -0.000     +0.000     +0.694
      -0.081     +0.497     +0.051
      +0.081     -0.497     +0.051
      +0.026     -0.028     +0.001
      -0.026     +0.028     +0.000
      +0.000     +0.000     +0.019
vibration  14
      -0.030     -0.039     +0.000
      -0.016     +0.004     +0.000
      -0.002     +0.006     +0.000
      -0.375     +0.053     -0.000
      +0.397     +0.302     +0.359
      +0.397     +0.302     -0.359
      +0.047     -0.175     +0.119
      +0.047     -0.175     -0.119
      +0.064     +0.019     -0.000
vibration  15
      +0.006     +0.015     -0.000
      -0.005     +0.085     +0.000
      +0.007     +0.003     -0.000
      +0.122     -0.014     +0.000
      -0.129     -0.081     -0.112
      -0.129     -0.081     +0.112
      +0.033     -0.530     +0.412
      +0.033     -0.530     -0.412
      -0.052     -0.010     +0.000
vibration  16
      -0.028     +0.045     +0.000
      +0.001     +0.006     -0.000
      +0.000     -0.001     +0.000
      -0.161     -0.747     -0.000
      +0.237     +0.110     -0.367
      +0.237     +0.110     +0.367
      +0.003     -0.034     -0.052
      +0.003     -0.034     +0.052
      -0.005     -0.000     -0.000
vibration  17
      +0.015     +0.025     -0.000
      +0.006     -0.063     +0.000
      -0.002     +0.000     +0.000
      -0.051     -0.243     -0.000
      -0.062     -0.021     +0.104
      -0.062     -0.021     -0.104
      -0.025     +0.371     +0.559
      -0.025     +0.371     -0.559
      +0.007     -0.011     +0.000
vibration  18
      -0.000     -0.000     +0.049
      +0.000     -0.000     -0.082
      -0.000     +0.000     +0.001
      +0.000     +0.001     +0.015
      +0.204     +0.084     -0.299
      -0.203     -0.084     -0.298
      -0.030     +0.351     +0.484
      +0.030     -0.351     +0.483
      +0.000     -0.000     -0.004
vibration  19
      -0.056     -0.063     -0.000
      +0.002     -0.022     +0.000
      -0.001     +0.001     -0.000
      +0.105     +0.563     -0.000
      +0.279     +0.098     -0.446
      +0.279     +0.098     +0.446
      -0.008     +0.117     +0.177
      -0.008     +0.118     -0.178
      +0.010     -0.005     +0.000
vibration  20
      +0.000     +0.000     +0.079
      -0.000     +0.000     +0.051
      +0.000     -0.000     -0.001
      -0.000     -0.000     +0.022
      +0.332     +0.133     -0.481
      -0.332     -0.133     -0.481
      +0.019     -0.217     -0.298
      -0.019     +0.217     -0.298
      -0.000     +0.000     +0.004
vibration  21
      -0.000     -0.001     +0.000
      -0.003     +0.001     -0.000
      -0.011     +0.062     +0.000
      +0.002     -0.004     -0.000
      -0.002     -0.000     +0.001
      -0.002     -0.000     -0.001
      -0.002     -0.004     -0.009
      -0.002     -0.004     +0.009
      +0.212     -0.975     -0.000
