[Molden Format]
[FR-COORD] # Coordinates in bohr
  C    +1.541319    +0.679914    +0.408696 
  O    +2.679983    -0.125426    -1.396041 
  H    +2.523417    +1.182279    +2.141093 
  C    -1.314683    +1.035166    +0.458725 
  O    -2.628104    -1.353919    +0.433784 
  H    -1.835882    +2.174452    +2.075792 
  H    -1.893939    +1.985926    -1.247439 
  H    -2.315483    -2.285553    +1.974007 
[FREQ] # Frequencies in cm^-1
 -171.2204
  292.5960
  327.8221
  564.3283
  909.7329
 1023.2320
 1119.6524
 1139.1306
 1335.9992
 1485.6831
 1515.0811
 1558.5683
 1667.2060
 1924.8045
 3154.2196
 3226.8561
 3305.4756
 3857.5626
[FR-NORM-COORD] # Displacements in bohr
vibration  1
      +0.018     +0.165     -0.042
      -0.066     -0.153     +0.047
      +0.126     +0.676     -0.252
      -0.005     +0.007     +0.117
      +0.041     -0.006     -0.102
      +0.029     -0.177     +0.258
      -0.113     +0.195     +0.253
      +0.209     -0.222     -0.268
vibration  2
      +0.045     +0.015     -0.068
      +0.181     +0.045     +0.001
      -0.013     +0.249     -0.101
      -0.008     -0.099     -0.009
      -0.251     +0.040     +0.086
      +0.125     -0.058     +0.007
      -0.058     -0.064     +0.025
      +0.620     -0.480     -0.404
vibration  3
      -0.051     -0.040     +0.039
      -0.073     -0.022     +0.018
      -0.077     -0.303     +0.130
      -0.014     +0.079     -0.049
      +0.080     +0.024     +0.013
      -0.066     +0.109     -0.089
      +0.007     -0.009     -0.101
      +0.795     -0.295     -0.323
vibration  4
      +0.127     +0.053     +0.158
      -0.176     +0.042     -0.023
      +0.309     +0.309     -0.032
      +0.145     -0.112     -0.041
      -0.071     +0.004     -0.014
      -0.138     +0.177     -0.341
      +0.514     -0.365     -0.311
      -0.005     -0.130     -0.108
vibration  5
      -0.285     -0.087     -0.062
      -0.046     +0.062     +0.071
      -0.433     +0.420     -0.128
      +0.229     -0.192     -0.062
      +0.072     +0.127     +0.019
      +0.544     -0.239     +0.077
      +0.136     +0.079     +0.116
      +0.008     +0.062     -0.015
vibration  6
      -0.042     -0.156     +0.007
      +0.066     +0.016     -0.044
      +0.090     +0.482     -0.252
      -0.168     -0.052     +0.138
      +0.104     +0.122     -0.015
      -0.351     +0.361     -0.206
      +0.180     -0.400     -0.183
      -0.125     -0.160     -0.156
vibration  7
      -0.049     +0.140     -0.092
      +0.010     -0.033     +0.020
      -0.136     -0.529     +0.150
      +0.063     -0.037     +0.091
      +0.013     +0.026     -0.002
      +0.014     +0.264     -0.140
      -0.065     -0.441     -0.088
      -0.355     -0.412     -0.202
vibration  8
      +0.141     +0.103     +0.048
      -0.036     -0.025     -0.004
      +0.075     -0.383     +0.236
      -0.169     -0.284     -0.121
      +0.086     +0.210     +0.029
      -0.144     -0.584     +0.115
      -0.403     +0.042     +0.142
      +0.020     +0.147     -0.022
vibration  9
      -0.059     +0.061     -0.058
      +0.030     -0.020     -0.005
      -0.011     -0.228     -0.011
      +0.010     -0.051     +0.079
      -0.021     +0.003     -0.017
      -0.469     -0.149     -0.020
      +0.605     +0.114     -0.037
      +0.327     +0.409     +0.172
vibration  10
      +0.014     +0.005     -0.001
      -0.010     +0.005     +0.014
      +0.049     -0.047     +0.001
      -0.012     -0.043     +0.065
      -0.023     -0.002     -0.070
      +0.408     +0.323     -0.043
      -0.324     -0.392     -0.008
      +0.384     +0.521     +0.182
vibration  11
      -0.010     -0.035     +0.012
      +0.007     +0.000     -0.014
      -0.093     +0.114     +0.005
      +0.122     +0.054     +0.012
      -0.018     +0.020     -0.008
      -0.613     -0.361     +0.051
      -0.523     -0.402     -0.011
      +0.059     +0.103     +0.032
vibration  12
      +0.066     +0.012     +0.028
      +0.000     -0.027     -0.070
      -0.822     +0.249     +0.480
      -0.010     -0.003     +0.029
      -0.000     -0.004     -0.005
      +0.026     +0.080     -0.006
      +0.104     +0.019     +0.003
      +0.027     +0.034     +0.015
vibration  13
      -0.003     -0.006     +0.008
      +0.002     -0.000     -0.004
      +0.010     -0.006     -0.010
      +0.051     -0.065     +0.005
      -0.002     -0.006     -0.002
      -0.307     +0.463     -0.455
      -0.301     +0.470     +0.405
      +0.018     +0.012     +0.006
vibration  14
      +0.376     -0.227     -0.502
      -0.225     +0.157     +0.352
      -0.467     +0.010     -0.095
      -0.023     +0.008     +0.043
      +0.002     +0.004     +0.003
      -0.323     +0.010     -0.051
      +0.132     +0.039     -0.017
      +0.002     -0.008     -0.006
vibration  15
      -0.040     -0.020     -0.069
      -0.001     +0.000     +0.001
      +0.476     +0.238     +0.818
      -0.002     +0.009     +0.012
      -0.000     +0.000     -0.000
      +0.041     -0.110     -0.167
      +0.003     -0.004     +0.016
      +0.000     -0.003     +0.003
vibration  16
      +0.010     +0.003     +0.014
      -0.000     +0.000     -0.000
      -0.099     -0.043     -0.160
      -0.030     +0.053     +0.038
      +0.001     +0.001     -0.000
      +0.242     -0.495     -0.736
      +0.088     -0.142     +0.290
      -0.001     +0.001     -0.000
vibration  17
      +0.002     +0.001     +0.005
      +0.000     -0.000     -0.001
      -0.028     -0.016     -0.043
      +0.016     -0.022     +0.087
      -0.000     +0.001     -0.002
      +0.089     -0.173     -0.241
      -0.279     +0.430     -0.793
      +0.008     -0.007     +0.023
vibration  18
      -0.000     +0.000     -0.000
      +0.000     -0.000     -0.000
      +0.001     -0.001     +0.003
      +0.002     +0.001     +0.003
      +0.009     -0.034     +0.052
      +0.002     -0.001     -0.007
      -0.006     +0.010     -0.019
      -0.158     +0.522     -0.835
