[Molden Format]
[FR-COORD] # Coordinates in bohr
  C    +1.549561    +0.945260    +0.056127 
  O    +2.611895    -1.054119    -0.154973 
  H    +2.586605    +2.710330    +0.243096 
  C    -1.274487    +1.332993    +0.082827 
  O    -2.511465    -1.066155    +0.088304 
  H    -1.761357    +2.422731    +1.751823 
  H    -1.752017    +2.484346    -1.552672 
  H    -3.942408    -1.093907    -1.038687 
[FREQ] # Frequencies in cm^-1
 -285.9625
  175.0800
  279.3519
  770.6787
  833.7477
  906.5082
 1160.5854
 1182.5712
 1345.1563
 1416.6741
 1542.1943
 1580.1262
 1653.9606
 1946.2755
 3141.6212
 3175.4580
 3206.1726
 3901.8227
[FR-NORM-COORD] # Displacements in bohr
vibration  1
      +0.009     +0.003     -0.015
      +0.005     -0.001     -0.014
      +0.012     +0.002     -0.018
      +0.008     -0.005     +0.012
      -0.055     +0.024     +0.058
      +0.015     -0.048     +0.037
      -0.031     +0.026     +0.047
      +0.583     -0.313     -0.739
vibration  2
      +0.001     -0.017     +0.191
      -0.009     +0.011     -0.132
      +0.007     -0.074     +0.676
      -0.002     +0.009     -0.129
      +0.006     +0.006     +0.085
      -0.176     +0.262     -0.349
      +0.178     -0.240     -0.361
      +0.035     -0.120     +0.052
vibration  3
      -0.041     +0.105     +0.001
      -0.449     -0.110     +0.011
      +0.244     -0.071     -0.034
      -0.001     +0.164     +0.019
      +0.451     -0.072     -0.023
      -0.136     +0.046     +0.050
      -0.141     +0.107     +0.025
      +0.508     -0.388     -0.084
vibration  4
      +0.198     +0.229     +0.042
      -0.205     +0.063     -0.010
      +0.284     +0.205     -0.296
      +0.238     -0.177     +0.041
      -0.155     -0.119     -0.006
      -0.028     +0.030     -0.182
      +0.362     -0.377     -0.145
      -0.094     +0.415     -0.113
vibration  5
      +0.062     +0.055     -0.059
      -0.031     +0.001     +0.033
      +0.095     -0.038     +0.619
      +0.027     -0.009     -0.120
      -0.035     -0.025     +0.029
      +0.352     -0.342     +0.204
      -0.378     +0.283     +0.223
      -0.083     -0.074     +0.091
vibration  6
      +0.299     +0.080     +0.023
      +0.056     -0.091     -0.015
      +0.563     -0.063     -0.154
      -0.246     +0.197     +0.038
      -0.073     -0.110     -0.017
      -0.510     +0.142     -0.018
      -0.306     +0.006     -0.071
      -0.111     -0.194     +0.018
vibration  7
      +0.159     +0.080     +0.032
      -0.028     -0.033     -0.008
      +0.077     +0.133     -0.085
      -0.203     -0.389     -0.010
      +0.099     +0.321     -0.017
      -0.340     -0.418     -0.014
      -0.334     -0.345     +0.056
      +0.001     -0.261     +0.187
vibration  8
      +0.005     -0.010     +0.143
      -0.010     +0.011     -0.032
      -0.013     +0.079     -0.559
      +0.030     +0.018     -0.110
      -0.022     -0.000     +0.016
      +0.001     -0.361     +0.128
      +0.225     +0.455     +0.140
      -0.116     -0.430     +0.152
vibration  9
      -0.019     -0.018     +0.108
      +0.013     -0.004     -0.021
      +0.048     -0.018     -0.327
      -0.006     +0.008     -0.077
      +0.025     -0.015     +0.025
      +0.122     -0.085     +0.026
      -0.609     -0.120     +0.029
      +0.146     +0.644     -0.160
vibration  10
      +0.022     -0.001     +0.055
      -0.011     +0.006     -0.008
      -0.050     +0.069     -0.126
      -0.010     -0.004     +0.031
      -0.016     +0.005     -0.049
      +0.692     +0.437     -0.026
      -0.272     -0.212     -0.024
      -0.079     -0.412     +0.057
vibration  11
      -0.078     -0.031     -0.003
      +0.007     +0.058     +0.006
      +0.591     -0.448     -0.047
      +0.112     +0.017     +0.024
      -0.023     +0.027     -0.023
      -0.279     -0.131     -0.008
      -0.356     -0.273     -0.022
      -0.096     -0.327     +0.095
vibration  12
      +0.022     +0.016     +0.002
      +0.007     -0.061     -0.006
      -0.604     +0.389     +0.041
      +0.121     +0.062     +0.020
      -0.019     +0.011     -0.016
      -0.400     -0.101     -0.028
      -0.435     -0.200     +0.005
      -0.071     -0.219     +0.065
vibration  13
      -0.009     +0.007     +0.000
      +0.006     -0.007     -0.001
      +0.049     -0.037     -0.002
      +0.033     -0.072     -0.002
      +0.001     -0.007     +0.001
      -0.234     +0.510     -0.423
      -0.211     +0.508     +0.439
      -0.000     +0.002     +0.001
vibration  14
      +0.360     -0.554     -0.059
      -0.206     +0.384     +0.040
      -0.496     -0.058     -0.005
      -0.021     +0.030     +0.001
      +0.010     +0.002     +0.005
      -0.244     +0.035     -0.070
      -0.195     +0.057     +0.069
      +0.028     +0.070     -0.021
vibration  15
      +0.040     +0.066     +0.007
      +0.001     -0.001     -0.000
      -0.479     -0.784     -0.084
      +0.009     -0.021     +0.004
      -0.001     -0.000     -0.000
      -0.044     +0.114     +0.198
      -0.063     +0.157     -0.243
      +0.004     -0.002     +0.002
vibration  16
      -0.015     -0.026     -0.002
      -0.000     +0.001     +0.000
      +0.190     +0.294     +0.032
      +0.025     -0.052     +0.036
      -0.001     -0.000     -0.000
      -0.072     +0.150     +0.276
      -0.217     +0.469     -0.707
      +0.009     -0.002     +0.005
vibration  17
      -0.005     -0.008     -0.002
      -0.000     +0.000     -0.000
      +0.061     +0.090     +0.009
      +0.012     -0.022     -0.086
      +0.000     -0.001     +0.001
      -0.238     +0.476     +0.751
      +0.101     -0.209     +0.280
      -0.004     +0.003     -0.009
vibration  18
      -0.000     -0.000     +0.000
      -0.000     +0.000     -0.000
      -0.001     -0.002     +0.000
      +0.000     -0.003     +0.002
      +0.050     +0.005     +0.038
      +0.001     -0.004     -0.002
      -0.008     +0.002     -0.010
      -0.785     -0.032     -0.615
