[Molden Format]
[FR-COORD] # Coordinates in bohr
  C    -1.225656    +0.739334    +0.000000 
  C    -3.577239    -0.025800    -0.000001 
  H    -0.703072    +2.697908    -0.000011 
  H    -5.089696    +1.316231    +0.000010 
  H    -4.038198    -1.995528    -0.000000 
  O    +0.770629    -0.996763    -0.000000 
  O    +3.266682    +0.207025    +0.000001 
  H    +2.943158    +2.019169    +0.000005 
[FREQ] # Frequencies in cm^-1
 -473.5493
 -140.1706
  354.6789
  570.6999
  729.3115
  928.4822
 1073.8455
 1094.7879
 1197.3131
 1255.6864
 1465.8466
 1545.5703
 1593.2036
 1862.7617
 3339.7912
 3361.4719
 3441.3495
 3757.2345
[FR-NORM-COORD] # Displacements in bohr
vibration  1
      +0.000     +0.000     -0.037
      +0.000     +0.000     -0.003
      +0.000     -0.000     -0.120
      +0.000     +0.000     -0.029
      +0.000     +0.000     +0.040
      +0.000     -0.000     +0.060
      -0.000     +0.000     -0.085
      -0.000     -0.000     +0.985
vibration  2
      -0.000     -0.000     +0.179
      -0.000     -0.000     -0.190
      +0.000     +0.000     +0.643
      -0.000     -0.000     -0.056
      -0.000     +0.000     -0.600
      +0.000     +0.000     +0.210
      +0.000     -0.000     -0.183
      +0.000     +0.000     -0.278
vibration  3
      -0.072     +0.210     -0.000
      +0.046     -0.163     +0.000
      -0.178     +0.236     -0.000
      -0.243     -0.494     +0.000
      +0.489     -0.270     +0.000
      -0.082     +0.187     +0.000
      +0.074     -0.181     -0.000
      +0.353     -0.128     +0.000
vibration  4
      -0.178     -0.122     -0.000
      -0.276     +0.008     +0.000
      -0.296     -0.084     +0.000
      -0.054     +0.273     -0.000
      -0.658     +0.101     +0.000
      +0.112     +0.109     -0.000
      +0.266     -0.041     +0.000
      +0.407     -0.005     +0.000
vibration  5
      -0.000     -0.000     -0.204
      -0.000     +0.000     +0.041
      +0.000     +0.000     +0.307
      +0.000     -0.000     +0.837
      +0.000     -0.000     -0.396
      -0.000     +0.000     +0.057
      -0.000     +0.000     +0.021
      -0.000     +0.000     -0.038
vibration  6
      +0.114     -0.175     -0.000
      +0.119     -0.089     +0.000
      -0.135     -0.104     +0.000
      +0.575     +0.430     -0.000
      -0.519     +0.076     +0.000
      -0.043     +0.251     -0.000
      -0.136     -0.077     +0.000
      +0.159     -0.019     +0.000
vibration  7
      -0.000     -0.000     -0.011
      -0.000     +0.000     -0.115
      +0.000     +0.000     +0.467
      +0.000     -0.000     +0.265
      +0.000     -0.000     +0.835
      -0.000     -0.000     -0.005
      +0.000     +0.000     -0.001
      +0.000     +0.000     +0.025
vibration  8
      +0.000     -0.000     +0.118
      -0.000     +0.000     -0.113
      -0.000     -0.000     -0.714
      +0.000     -0.000     +0.681
      -0.000     +0.000     +0.017
      +0.000     +0.000     -0.002
      -0.000     -0.000     +0.000
      +0.000     -0.000     -0.018
vibration  9
      +0.003     -0.072     -0.000
      -0.135     +0.120     +0.000
      +0.266     -0.136     +0.000
      -0.575     -0.381     -0.000
      +0.445     -0.035     -0.000
      +0.324     +0.119     +0.000
      -0.236     -0.115     -0.000
      +0.058     -0.076     -0.000
vibration  10
      +0.071     -0.227     +0.000
      -0.027     +0.114     +0.000
      +0.433     -0.341     -0.000
      -0.353     -0.282     -0.000
      +0.563     -0.040     -0.000
      -0.173     +0.079     -0.000
      +0.085     +0.042     -0.000
      +0.224     +0.087     +0.000
vibration  11
      -0.009     -0.075     +0.000
      +0.037     +0.077     -0.000
      -0.776     +0.143     -0.000
      +0.013     +0.035     +0.000
      +0.350     +0.009     -0.000
      +0.006     +0.017     +0.000
      +0.029     -0.023     -0.000
      -0.474     -0.119     +0.000
vibration  12
      +0.057     +0.022     -0.000
      -0.030     -0.030     +0.000
      +0.341     -0.040     +0.000
      -0.177     -0.182     -0.000
      -0.320     +0.031     +0.000
      -0.009     +0.057     +0.000
      +0.050     -0.027     -0.000
      -0.815     -0.196     -0.000
vibration  13
      -0.101     +0.007     +0.000
      -0.035     -0.033     +0.000
      +0.379     -0.130     -0.000
      +0.449     +0.503     -0.000
      +0.527     -0.158     -0.000
      +0.018     +0.021     -0.000
      +0.014     -0.011     -0.000
      -0.254     -0.065     -0.000
vibration  14
      +0.400     +0.075     -0.000
      -0.355     -0.108     +0.000
      -0.320     +0.355     +0.000
      +0.063     +0.453     -0.000
      +0.358     -0.343     -0.000
      -0.036     -0.019     -0.000
      -0.012     +0.012     +0.000
      +0.102     +0.036     +0.000
vibration  15
      -0.020     -0.067     +0.000
      -0.033     -0.003     +0.000
      +0.228     +0.796     -0.000
      +0.329     -0.297     -0.000
      +0.076     +0.326     +0.000
      -0.001     -0.001     +0.000
      +0.000     +0.000     -0.000
      +0.008     +0.010     -0.000
vibration  16
      +0.024     +0.047     -0.000
      -0.058     -0.026     +0.000
      -0.147     -0.507     +0.000
      +0.403     -0.359     -0.000
      +0.148     +0.633     -0.000
      +0.001     -0.000     -0.000
      -0.000     -0.000     +0.000
      -0.005     -0.004     -0.000
vibration  17
      +0.003     +0.011     -0.000
      -0.032     +0.093     +0.000
      -0.033     -0.104     +0.000
      +0.542     -0.467     -0.000
      -0.169     -0.661     +0.000
      +0.001     -0.000     +0.000
      -0.000     -0.000     +0.000
      -0.001     -0.003     -0.000
vibration  18
      -0.000     +0.003     -0.000
      +0.000     -0.000     +0.000
      -0.001     -0.006     +0.000
      +0.001     +0.000     -0.000
      -0.001     -0.002     +0.000
      +0.002     -0.000     +0.000
      +0.010     -0.063     -0.000
      -0.193     +0.979     +0.000
