[Molden Format]
[FR-COORD] # Coordinates in bohr
  C    +1.348944    +0.825236    +0.534446 
  C    +3.082741    -0.801501    -0.156550 
  H    +1.569971    +2.145046    +2.052774 
  H    +4.865171    -0.884973    +0.798952 
  H    +2.767156    -2.061800    -1.709837 
  O    -0.986659    +1.005622    -0.741253 
  O    -2.797273    -0.870862    +0.277845 
  H    -1.915878    -1.619619    +1.713198 
[FREQ] # Frequencies in cm^-1
 -386.8441
  -78.9199
  375.3141
  516.0288
  834.7802
  967.7276
 1110.7847
 1131.9858
 1149.6324
 1245.5353
 1463.9079
 1521.3114
 1575.1864
 1841.3604
 3341.7498
 3378.4408
 3433.2265
 3742.5285
[FR-NORM-COORD] # Displacements in bohr
vibration  1
      -0.012     +0.005     +0.014
      +0.004     +0.017     +0.013
      -0.055     -0.020     +0.039
      -0.005     +0.008     +0.028
      +0.033     +0.050     -0.022
      +0.021     -0.042     -0.047
      -0.038     +0.066     +0.061
      +0.392     -0.685     -0.594
vibration  2
      -0.039     -0.131     +0.082
      +0.135     +0.122     -0.070
      -0.249     -0.360     +0.314
      +0.089     +0.118     +0.016
      +0.320     +0.345     -0.287
      +0.052     -0.126     -0.083
      -0.115     +0.107     +0.054
      -0.298     +0.318     +0.276
vibration  3
      -0.110     -0.007     +0.065
      -0.161     -0.020     -0.004
      -0.298     -0.293     +0.340
      -0.272     -0.374     +0.170
      -0.130     +0.316     -0.282
      +0.023     +0.045     -0.144
      +0.204     -0.016     +0.076
      +0.317     +0.206     +0.120
vibration  4
      -0.053     -0.130     -0.161
      +0.132     -0.046     +0.056
      -0.089     -0.306     +0.003
      -0.090     +0.149     +0.501
      +0.681     -0.094     -0.012
      -0.130     +0.150     +0.009
      +0.028     -0.002     +0.042
      +0.178     -0.008     -0.053
vibration  5
      -0.139     -0.150     +0.068
      -0.037     +0.018     -0.020
      +0.007     +0.082     -0.156
      +0.198     +0.676     -0.402
      -0.051     -0.371     +0.301
      +0.018     +0.011     +0.001
      +0.098     +0.061     -0.018
      +0.115     +0.050     -0.039
vibration  6
      +0.115     -0.046     +0.177
      +0.156     -0.043     +0.050
      -0.018     +0.093     +0.070
      +0.478     -0.171     -0.558
      -0.400     -0.009     +0.121
      -0.146     +0.156     -0.198
      -0.076     -0.092     +0.052
      +0.223     +0.118     -0.028
vibration  7
      +0.024     +0.062     -0.046
      -0.027     +0.024     -0.040
      -0.154     -0.521     +0.492
      -0.049     +0.191     +0.017
      -0.113     -0.478     +0.390
      +0.082     +0.047     -0.023
      -0.058     -0.059     +0.028
      -0.037     -0.040     +0.033
vibration  8
      +0.015     +0.010     -0.042
      +0.108     +0.055     -0.004
      -0.390     -0.245     +0.234
      +0.084     -0.475     -0.013
      -0.466     -0.261     +0.356
      -0.154     -0.106     +0.062
      +0.112     +0.118     -0.059
      -0.018     +0.002     -0.055
vibration  9
      -0.038     -0.073     +0.091
      +0.039     +0.106     -0.120
      +0.218     +0.290     -0.262
      -0.323     -0.410     +0.513
      -0.071     -0.361     +0.285
      +0.028     +0.029     -0.027
      -0.020     -0.024     +0.015
      +0.039     +0.010     -0.001
vibration  10
      +0.143     +0.094     +0.159
      -0.075     -0.063     -0.091
      +0.440     -0.082     +0.284
      -0.201     +0.379     +0.219
      +0.538     -0.281     -0.018
      -0.148     -0.078     -0.048
      +0.045     +0.048     -0.031
      +0.049     +0.082     -0.034
vibration  11
      -0.008     -0.052     -0.053
      -0.009     +0.070     +0.065
      +0.808     -0.347     +0.088
      -0.022     +0.062     +0.066
      -0.359     +0.213     +0.029
      -0.018     -0.018     -0.012
      -0.003     +0.003     -0.006
      +0.107     +0.082     -0.036
vibration  12
      +0.011     -0.019     +0.004
      -0.004     +0.008     +0.007
      +0.093     -0.017     -0.014
      -0.014     +0.047     +0.026
      -0.065     +0.036     -0.000
      -0.020     +0.034     -0.050
      +0.061     +0.008     +0.027
      -0.746     -0.609     +0.213
vibration  13
      -0.112     +0.059     +0.002
      +0.000     +0.019     +0.022
      +0.334     -0.084     +0.082
      +0.230     -0.527     -0.432
      +0.536     -0.205     +0.081
      +0.012     -0.005     -0.004
      +0.006     +0.000     +0.001
      -0.057     -0.038     +0.024
vibration  14
      +0.296     -0.220     -0.064
      -0.266     +0.242     +0.101
      -0.317     -0.057     -0.229
      -0.091     -0.320     -0.398
      +0.478     -0.020     +0.248
      -0.023     +0.009     -0.003
      -0.007     -0.001     +0.001
      +0.046     +0.023     -0.030
vibration  15
      +0.008     +0.011     +0.016
      -0.048     +0.041     +0.016
      -0.029     -0.188     -0.214
      +0.612     -0.026     +0.331
      -0.102     -0.407     -0.502
      +0.000     -0.000     +0.000
      -0.000     -0.000     +0.000
      -0.001     +0.002     -0.002
vibration  16
      +0.000     -0.059     -0.061
      -0.008     +0.025     +0.022
      +0.089     +0.616     +0.697
      +0.056     -0.004     +0.028
      -0.053     -0.212     -0.260
      -0.000     +0.000     -0.000
      -0.000     +0.000     -0.000
      +0.002     -0.005     +0.003
vibration  17
      +0.001     +0.013     +0.014
      +0.061     +0.031     +0.069
      -0.016     -0.133     -0.148
      -0.627     +0.036     -0.329
      -0.092     -0.421     -0.512
      -0.001     -0.000     -0.000
      +0.000     -0.000     +0.000
      -0.002     +0.003     -0.002
vibration  18
      -0.002     +0.000     -0.001
      +0.000     -0.000     -0.000
      +0.000     +0.004     +0.004
      +0.001     -0.001     +0.001
      +0.000     +0.002     +0.002
      +0.002     +0.001     -0.000
      +0.029     -0.027     +0.050
      -0.485     +0.399     -0.776
