[Molden Format]
[FR-COORD] # Coordinates in bohr
  C    -1.477360    +1.021657    +0.018010 
  C    -2.746931    -1.099414    +0.049234 
  H    -2.322068    +2.859873    -0.000644 
  H    -4.768857    -1.054113    +0.059104 
  H    -1.822944    -2.892365    +0.048983 
  O    +1.137809    +1.327844    +0.004474 
  O    +2.351778    -1.150073    -0.119385 
  H    +3.829512    -0.808923    +0.915605 
[FREQ] # Frequencies in cm^-1
  128.1039
  205.2554
  338.9010
  656.1962
  780.6796
  955.9641
 1091.5409
 1127.3567
 1129.7471
 1315.1244
 1462.3606
 1480.2328
 1590.8494
 1866.4034
 3362.8002
 3394.7246
 3463.1312
 3818.6453
[FR-NORM-COORD] # Displacements in bohr
vibration  1
      -0.002     -0.003     -0.002
      +0.000     -0.003     +0.028
      -0.003     -0.003     -0.012
      +0.000     -0.008     +0.044
      +0.005     -0.001     +0.018
      +0.004     +0.002     -0.013
      +0.029     +0.023     -0.061
      -0.497     -0.314     +0.804
vibration  2
      +0.002     +0.001     +0.177
      -0.002     -0.001     -0.099
      +0.007     +0.008     +0.674
      +0.000     +0.007     +0.225
      -0.009     -0.005     -0.597
      -0.000     +0.003     -0.209
      +0.003     -0.009     +0.122
      -0.049     +0.100     +0.160
vibration  3
      -0.029     -0.086     +0.002
      -0.312     +0.081     +0.007
      +0.107     -0.019     +0.007
      -0.307     +0.393     +0.011
      -0.586     -0.069     +0.009
      -0.037     -0.106     +0.003
      +0.327     +0.071     -0.014
      +0.234     +0.312     +0.045
vibration  4
      -0.172     +0.193     +0.002
      +0.077     +0.078     -0.000
      -0.020     +0.261     +0.011
      +0.075     -0.498     +0.006
      +0.622     +0.353     -0.007
      -0.107     -0.142     +0.006
      +0.132     -0.080     -0.011
      +0.036     +0.167     +0.050
vibration  5
      -0.002     +0.001     +0.182
      -0.004     -0.001     -0.024
      -0.005     -0.005     -0.282
      -0.008     -0.014     -0.834
      +0.008     +0.005     +0.431
      +0.004     +0.002     -0.069
      +0.002     -0.002     -0.007
      -0.015     +0.012     +0.014
vibration  6
      +0.253     -0.039     +0.003
      +0.205     +0.102     +0.003
      +0.285     -0.031     -0.001
      +0.224     +0.583     -0.057
      -0.165     -0.076     +0.003
      -0.277     -0.240     +0.003
      -0.076     +0.137     -0.008
      -0.196     +0.415     +0.063
vibration  7
      +0.003     -0.003     +0.022
      -0.004     +0.000     -0.146
      +0.018     +0.006     +0.256
      -0.000     -0.010     +0.459
      +0.020     +0.013     +0.837
      +0.002     -0.005     -0.003
      -0.003     +0.006     -0.002
      -0.010     -0.000     +0.010
vibration  8
      -0.038     +0.048     -0.010
      +0.132     -0.005     -0.001
      -0.504     -0.155     +0.119
      +0.136     +0.586     -0.044
      -0.396     -0.260     +0.078
      -0.117     +0.141     +0.010
      +0.095     -0.190     -0.015
      -0.009     +0.098     +0.062
vibration  9
      -0.002     +0.005     +0.116
      +0.010     +0.000     -0.069
      -0.042     -0.022     -0.827
      +0.013     +0.047     +0.503
      -0.027     -0.018     -0.198
      -0.008     +0.005     -0.001
      +0.006     -0.009     -0.002
      +0.007     -0.005     -0.003
vibration  10
      +0.217     -0.142     +0.003
      -0.113     +0.087     -0.000
      +0.430     -0.046     -0.022
      -0.106     -0.488     +0.013
      +0.493     +0.387     -0.018
      -0.166     +0.179     +0.007
      +0.038     -0.131     -0.010
      -0.024     +0.046     +0.038
vibration  11
      -0.036     +0.061     +0.001
      +0.022     -0.097     +0.000
      +0.793     +0.451     -0.015
      +0.013     -0.011     +0.001
      -0.275     -0.256     +0.008
      -0.036     +0.037     -0.001
      +0.011     -0.017     +0.001
      +0.033     -0.080     -0.006
vibration  12
      +0.026     +0.031     +0.001
      -0.023     -0.026     +0.000
      +0.005     +0.025     -0.014
      -0.033     -0.202     +0.009
      -0.132     -0.091     -0.004
      +0.060     +0.001     +0.022
      -0.030     -0.044     -0.030
      -0.354     +0.883     +0.127
vibration  13
      -0.082     -0.071     +0.001
      -0.008     -0.037     +0.001
      +0.248     +0.071     -0.006
      +0.016     +0.706     -0.004
      +0.547     +0.258     -0.009
      +0.031     +0.014     +0.005
      -0.010     -0.011     -0.007
      -0.089     +0.215     +0.026
vibration  14
      +0.260     +0.318     -0.004
      -0.197     -0.314     +0.004
      -0.442     +0.083     +0.005
      -0.237     +0.385     -0.000
      +0.509     -0.023     +0.002
      -0.052     -0.028     -0.004
      +0.011     +0.006     +0.004
      +0.064     -0.140     -0.012
vibration  15
      -0.016     +0.026     -0.000
      +0.051     +0.038     -0.000
      +0.165     -0.360     +0.004
      -0.787     +0.019     +0.004
      +0.219     -0.413     +0.000
      -0.001     +0.000     -0.000
      +0.000     -0.000     +0.000
      -0.001     -0.002     -0.001
vibration  16
      +0.026     -0.079     +0.001
      +0.018     +0.031     -0.000
      -0.375     +0.826     -0.009
      -0.287     +0.004     +0.001
      +0.138     -0.259     +0.000
      +0.001     -0.000     +0.000
      -0.001     +0.001     -0.000
      -0.000     +0.001     +0.001
vibration  17
      +0.006     -0.007     +0.000
      +0.074     -0.063     -0.000
      -0.039     +0.093     -0.001
      -0.531     +0.002     +0.003
      -0.373     +0.748     -0.000
      -0.000     -0.001     +0.000
      +0.000     +0.000     -0.000
      +0.000     +0.002     +0.000
vibration  18
      -0.001     -0.001     -0.000
      +0.000     +0.000     +0.000
      +0.003     -0.001     -0.000
      -0.000     +0.000     -0.000
      +0.001     +0.000     -0.000
      +0.001     -0.001     -0.000
      -0.052     -0.010     -0.035
      +0.803     +0.187     +0.562
