[Molden Format]
[FR-COORD] # Coordinates in bohr
  C    +0.878028    +0.244201    +0.141367 
  O    +1.958936    +2.203823    -0.162850 
  O    +2.049997    -2.043135    -0.353977 
  C    -1.797406    -0.032938    +0.989809 
  C    -3.718186    -0.142497    -0.578351 
  H    -2.078570    -0.118638    +2.999864 
  H    -5.619916    -0.330431    +0.096363 
  H    -3.473863    -0.049120    -2.589233 
  H    +2.766381    -2.870837    +1.113041 
[FREQ] # Frequencies in cm^-1
 -537.0975
 -177.7483
  302.1929
  332.0615
  600.1368
  775.1543
  790.0428
  871.1813
 1115.6389
 1117.4081
 1163.0011
 1261.0994
 1284.9132
 1460.8061
 1616.2440
 1852.0742
 1981.8891
 3323.1009
 3336.6811
 3405.9668
 3857.0266
[FR-NORM-COORD] # Displacements in bohr
vibration  1
      -0.003     +0.005     -0.006
      +0.014     -0.000     +0.018
      -0.060     -0.036     +0.017
      -0.000     +0.001     -0.020
      -0.008     +0.006     -0.007
      +0.021     -0.039     -0.019
      -0.002     -0.017     +0.002
      -0.019     +0.024     -0.007
      +0.865     +0.469     -0.149
vibration  2
      -0.004     -0.026     -0.005
      -0.081     +0.001     -0.095
      +0.089     -0.003     +0.095
      +0.011     -0.158     -0.011
      -0.021     +0.185     +0.006
      +0.057     -0.670     -0.025
      -0.004     -0.006     +0.002
      -0.065     +0.652     +0.022
      +0.054     +0.044     +0.138
vibration  3
      +0.026     -0.020     -0.137
      +0.092     -0.015     +0.112
      +0.155     +0.003     +0.054
      -0.024     +0.019     -0.214
      -0.273     -0.001     +0.088
      +0.136     +0.143     -0.178
      -0.152     +0.099     +0.465
      -0.655     -0.118     +0.038
      -0.016     +0.077     +0.181
vibration  4
      +0.009     +0.134     -0.022
      +0.176     +0.043     -0.011
      -0.171     +0.020     +0.046
      +0.023     -0.036     -0.046
      -0.018     -0.111     +0.012
      +0.104     -0.546     -0.054
      +0.051     -0.616     +0.066
      -0.130     +0.319     +0.019
      -0.278     -0.010     +0.080
vibration  5
      +0.031     -0.012     -0.198
      -0.229     +0.184     +0.133
      -0.164     -0.190     +0.073
      +0.292     -0.026     -0.162
      +0.170     +0.025     +0.048
      +0.480     +0.147     -0.127
      +0.242     +0.222     +0.295
      -0.054     -0.117     +0.015
      -0.309     +0.001     +0.260
vibration  6
      -0.168     -0.028     -0.269
      +0.008     -0.093     +0.082
      +0.069     +0.017     -0.002
      -0.032     +0.113     +0.105
      +0.061     -0.004     +0.035
      +0.206     -0.099     +0.126
      -0.015     -0.353     -0.297
      +0.377     +0.220     +0.080
      -0.134     +0.468     +0.366
vibration  7
      -0.061     +0.037     -0.090
      +0.096     -0.028     -0.004
      -0.076     +0.131     +0.037
      +0.015     -0.266     +0.024
      +0.017     +0.017     +0.012
      +0.052     +0.207     +0.048
      -0.084     +0.761     -0.073
      +0.167     -0.344     +0.012
      -0.112     +0.259     +0.125
vibration  8
      +0.149     +0.128     -0.107
      +0.078     +0.269     -0.001
      +0.072     -0.303     -0.048
      -0.200     -0.100     +0.174
      -0.129     -0.005     -0.002
      -0.180     +0.035     +0.186
      -0.325     +0.212     -0.490
      +0.348     -0.075     +0.045
      -0.076     +0.084     +0.273
vibration  9
      +0.030     -0.025     -0.039
      -0.006     +0.006     +0.007
      -0.013     +0.029     +0.035
      -0.004     +0.056     -0.009
      -0.039     +0.041     +0.024
      +0.235     -0.579     +0.000
      -0.115     +0.043     -0.197
      +0.237     -0.594     +0.023
      +0.093     -0.283     -0.212
vibration  10
      +0.061     -0.049     -0.062
      -0.009     +0.010     +0.008
      -0.027     +0.049     +0.058
      +0.001     -0.025     -0.014
      -0.053     -0.036     +0.032
      +0.238     +0.435     +0.042
      -0.170     -0.094     -0.320
      +0.246     +0.461     +0.084
      +0.160     -0.420     -0.327
vibration  11
      -0.004     -0.000     -0.002
      -0.004     -0.001     +0.002
      +0.005     -0.003     +0.001
      -0.008     +0.100     +0.003
      +0.015     -0.161     -0.006
      +0.039     -0.389     -0.011
      -0.067     +0.788     +0.030
      -0.035     +0.425     +0.015
      +0.013     -0.029     -0.019
vibration  12
      -0.108     +0.093     +0.186
      -0.001     -0.030     -0.024
      +0.035     -0.057     -0.058
      +0.083     -0.001     -0.129
      -0.079     -0.010     +0.064
      +0.604     +0.088     -0.050
      -0.237     +0.036     -0.397
      +0.433     +0.027     +0.118
      -0.102     +0.241     +0.203
vibration  13
      -0.267     +0.163     -0.034
      +0.049     +0.017     +0.002
      +0.079     -0.086     +0.042
      -0.017     -0.034     +0.009
      +0.073     +0.013     -0.018
      +0.098     +0.083     +0.023
      +0.170     +0.049     +0.249
      -0.101     -0.037     -0.033
      +0.290     -0.695     -0.431
vibration  14
      +0.024     -0.013     +0.019
      -0.004     -0.001     -0.001
      -0.006     +0.006     -0.004
      -0.029     -0.004     +0.103
      -0.014     +0.003     -0.126
      +0.822     +0.059     +0.239
      +0.028     -0.003     +0.037
      -0.439     -0.029     -0.186
      -0.026     +0.053     +0.034
vibration  15
      -0.029     +0.024     -0.010
      -0.003     -0.010     +0.004
      +0.005     -0.006     +0.004
      +0.120     +0.007     +0.041
      +0.001     -0.000     +0.023
      -0.254     -0.020     -0.008
      -0.263     +0.007     -0.670
      -0.623     -0.055     -0.072
      +0.020     -0.038     -0.023
vibration  16
      +0.023     -0.059     +0.031
      +0.019     +0.037     -0.013
      -0.002     +0.006     -0.009
      -0.329     -0.019     -0.183
      +0.293     +0.017     +0.215
      +0.355     +0.032     -0.133
      +0.094     +0.021     -0.486
      -0.543     -0.049     +0.166
      -0.029     +0.047     +0.031
vibration  17
      -0.415     -0.689     +0.130
      +0.264     +0.460     -0.077
      -0.002     +0.033     -0.008
      +0.120     +0.035     +0.013
      -0.049     -0.005     -0.032
      -0.023     -0.040     -0.004
      -0.037     -0.066     -0.003
      +0.032     +0.034     -0.033
      -0.039     +0.108     +0.064
vibration  18
      +0.000     -0.000     +0.000
      +0.000     +0.000     +0.000
      +0.000     +0.000     +0.000
      -0.010     -0.002     +0.040
      +0.046     +0.003     +0.033
      +0.077     +0.022     -0.521
      -0.583     -0.058     +0.215
      +0.075     +0.027     -0.567
      +0.000     -0.000     +0.001
vibration  19
      -0.001     +0.000     +0.000
      +0.000     +0.000     -0.000
      +0.000     -0.000     -0.000
      +0.002     +0.003     -0.074
      +0.025     +0.001     +0.038
      -0.120     -0.035     +0.820
      -0.256     -0.025     +0.096
      +0.061     +0.022     -0.474
      +0.000     +0.000     -0.000
vibration  20
      +0.001     +0.000     +0.000
      +0.000     +0.000     -0.000
      -0.000     +0.000     +0.000
      -0.002     -0.001     +0.013
      -0.064     -0.008     +0.074
      +0.018     +0.006     -0.143
      +0.686     +0.067     -0.236
      +0.070     +0.030     -0.658
      +0.000     -0.000     -0.000
vibration  21
      -0.000     +0.001     +0.002
      +0.000     +0.001     +0.000
      +0.025     -0.031     +0.048
      -0.000     +0.000     -0.000
      -0.000     -0.000     +0.000
      -0.001     -0.000     -0.000
      -0.001     -0.000     -0.000
      +0.000     +0.000     -0.000
      -0.399     +0.474     -0.782
