[Molden Format]
[FR-COORD] # Coordinates in bohr
  C    -0.960905    -0.179167    +0.034215 
  O    -2.789312    -1.494154    -0.193331 
  O    -1.196434    +2.384309    +0.062070 
  C    +1.638261    -1.212213    +0.276869 
  C    +3.703332    +0.089073    -0.197546 
  H    +1.700759    -3.172138    +0.772519 
  H    +5.539447    -0.754199    -0.061622 
  H    +3.662006    +2.025708    -0.801355 
  H    +0.194352    +3.279582    +0.821793 
[FREQ] # Frequencies in cm^-1
  138.2398
  273.6329
  415.3650
  519.0414
  600.2523
  656.8576
  877.3464
  908.9345
 1141.7355
 1153.9969
 1185.5658
 1273.4708
 1366.7051
 1447.8440
 1609.9035
 1845.1741
 1990.9284
 3329.6207
 3389.8109
 3413.8866
 3928.4685
[FR-NORM-COORD] # Displacements in bohr
vibration  1
      -0.004     +0.006     -0.039
      -0.024     -0.002     +0.150
      -0.020     +0.000     -0.067
      -0.003     -0.032     -0.226
      +0.050     +0.025     +0.170
      -0.053     -0.132     -0.616
      +0.020     -0.052     +0.102
      +0.160     +0.158     +0.591
      +0.047     +0.055     -0.260
vibration  2
      -0.006     +0.086     -0.003
      +0.081     -0.035     -0.031
      -0.209     +0.044     +0.084
      +0.003     +0.078     +0.009
      +0.140     -0.157     -0.022
      -0.138     +0.085     +0.061
      +0.037     -0.379     +0.020
      +0.404     -0.158     -0.060
      +0.094     +0.213     -0.677
vibration  3
      -0.012     -0.042     -0.021
      -0.065     +0.028     -0.020
      +0.058     -0.063     +0.064
      +0.010     -0.005     +0.005
      -0.034     +0.075     +0.014
      +0.093     +0.025     +0.109
      +0.004     +0.177     +0.125
      -0.064     +0.036     -0.114
      +0.497     -0.033     -0.800
vibration  4
      -0.038     -0.033     -0.153
      -0.101     +0.009     +0.064
      -0.007     -0.028     +0.040
      +0.038     +0.067     -0.081
      +0.119     +0.002     +0.021
      +0.064     +0.177     +0.363
      +0.086     +0.014     +0.588
      +0.229     -0.130     -0.417
      -0.075     -0.183     +0.357
vibration  5
      -0.020     -0.109     +0.166
      -0.223     +0.205     -0.072
      -0.118     -0.141     -0.070
      +0.220     -0.012     +0.095
      +0.214     +0.031     -0.044
      +0.383     -0.085     -0.190
      +0.207     -0.069     -0.471
      +0.212     +0.135     +0.293
      -0.319     +0.077     +0.036
vibration  6
      +0.142     +0.015     -0.078
      +0.064     +0.142     +0.036
      -0.146     +0.014     +0.021
      +0.078     -0.234     -0.037
      -0.060     -0.027     +0.024
      +0.026     -0.170     +0.221
      +0.137     +0.453     +0.268
      -0.514     -0.110     -0.211
      -0.263     +0.292     -0.095
vibration  7
      -0.218     +0.014     +0.009
      -0.125     -0.209     -0.028
      +0.005     +0.342     +0.001
      +0.193     -0.190     +0.032
      +0.137     -0.013     +0.005
      +0.207     -0.199     +0.036
      +0.365     +0.453     -0.147
      -0.341     -0.013     +0.022
      +0.331     -0.100     -0.039
vibration  8
      -0.036     -0.010     +0.361
      +0.022     -0.011     -0.088
      +0.021     +0.017     -0.056
      -0.024     -0.026     -0.203
      -0.001     +0.010     +0.001
      +0.076     +0.058     +0.119
      -0.025     +0.070     +0.738
      +0.107     -0.113     -0.397
      -0.108     +0.212     -0.049
vibration  9
      -0.039     +0.068     +0.020
      +0.010     +0.005     -0.001
      +0.004     -0.063     -0.009
      -0.012     +0.045     +0.019
      +0.068     -0.018     +0.074
      -0.333     -0.096     -0.497
      +0.202     +0.240     -0.176
      -0.324     -0.211     -0.556
      +0.037     -0.139     +0.020
vibration  10
      -0.050     +0.080     +0.024
      +0.011     -0.000     -0.005
      +0.018     -0.074     -0.005
      -0.019     +0.033     -0.046
      +0.061     -0.062     -0.050
      -0.351     +0.150     +0.457
      +0.260     +0.388     +0.009
      -0.288     +0.123     +0.541
      +0.014     -0.089     +0.005
vibration  11
      +0.001     +0.001     -0.014
      -0.000     +0.002     +0.004
      -0.004     +0.001     +0.000
      +0.006     +0.022     +0.112
      -0.009     -0.036     -0.136
      -0.021     -0.150     -0.565
      +0.045     +0.218     +0.715
      +0.040     +0.078     +0.232
      +0.026     -0.049     +0.005
vibration  12
      +0.026     -0.051     -0.033
      -0.061     -0.051     -0.003
      +0.076     +0.007     +0.034
      -0.023     +0.055     +0.009
      +0.027     -0.024     +0.002
      -0.104     +0.035     -0.064
      +0.074     +0.076     -0.026
      -0.147     -0.031     -0.003
      -0.412     +0.861     -0.123
vibration  13
      +0.219     -0.353     +0.055
      -0.033     +0.038     -0.010
      -0.071     +0.163     -0.016
      -0.089     +0.170     -0.038
      +0.039     -0.075     +0.016
      -0.408     +0.175     -0.018
      +0.155     +0.191     -0.076
      -0.434     -0.061     +0.098
      +0.320     -0.419     +0.018
vibration  14
      -0.025     +0.024     -0.006
      +0.018     +0.009     +0.003
      +0.000     -0.011     -0.001
      -0.020     +0.092     -0.025
      -0.023     -0.114     +0.031
      +0.876     +0.122     -0.080
      +0.040     +0.044     -0.007
      -0.403     -0.117     +0.072
      +0.015     -0.031     -0.005
vibration  15
      +0.009     -0.021     -0.003
      +0.016     +0.008     +0.003
      -0.002     +0.007     -0.000
      -0.134     -0.034     +0.013
      +0.009     -0.016     +0.008
      +0.241     -0.032     -0.003
      +0.331     +0.607     -0.208
      +0.627     -0.001     -0.068
      -0.021     +0.023     +0.022
vibration  16
      -0.054     -0.047     -0.017
      +0.068     +0.036     +0.010
      +0.001     +0.004     +0.004
      -0.318     -0.142     +0.052
      +0.299     +0.171     -0.066
      +0.291     -0.173     +0.045
      +0.027     -0.499     +0.151
      -0.550     +0.217     +0.002
      -0.002     +0.032     -0.036
vibration  17
      +0.584     +0.411     +0.079
      -0.357     -0.244     -0.045
      -0.045     -0.027     -0.016
      -0.140     -0.056     +0.008
      +0.063     +0.040     -0.016
      +0.294     -0.020     +0.019
      +0.005     -0.088     +0.050
      -0.119     +0.063     -0.008
      +0.159     -0.343     +0.063
vibration  18
      -0.000     +0.001     -0.000
      +0.000     -0.000     +0.000
      -0.000     -0.001     +0.000
      -0.008     +0.001     +0.000
      +0.050     +0.048     -0.018
      +0.003     -0.063     +0.016
      -0.521     +0.252     -0.043
      +0.027     -0.772     +0.236
      +0.003     -0.000     +0.001
vibration  19
      +0.002     +0.000     +0.000
      -0.001     -0.000     -0.000
      +0.000     -0.000     -0.000
      +0.001     +0.072     -0.018
      +0.027     -0.043     +0.011
      +0.031     -0.822     +0.208
      -0.359     +0.163     -0.027
      -0.007     +0.325     -0.099
      +0.000     +0.000     +0.000
vibration  20
      -0.002     -0.001     -0.000
      +0.001     +0.001     +0.000
      +0.000     +0.001     +0.000
      -0.001     -0.046     +0.012
      +0.058     -0.058     +0.014
      -0.016     +0.509     -0.128
      -0.644     +0.289     -0.045
      -0.002     +0.443     -0.137
      -0.004     +0.001     -0.000
vibration  21
      +0.003     -0.000     +0.001
      -0.001     -0.001     -0.000
      +0.046     +0.034     +0.025
      -0.000     -0.000     -0.000
      +0.000     -0.000     +0.000
      +0.001     -0.002     -0.000
      +0.001     +0.000     -0.001
      +0.002     -0.005     -0.002
      -0.757     -0.507     -0.406
