[Molden Format]
[FR-COORD] # Coordinates in bohr
  C    -0.952181    -0.209731    +0.015896 
  O    -2.834128    -1.461084    -0.080572 
  O    -1.049407    +2.402910    -0.088986 
  C    +1.622352    -1.276867    +0.182711 
  C    +3.662699    +0.116745    -0.100060 
  H    +1.698476    -3.274809    +0.489746 
  H    +5.520090    -0.685560    -0.008214 
  H    +3.532891    +2.102051    -0.475747 
  H    -0.707684    +3.221481    +1.511843 
[FREQ] # Frequencies in cm^-1
 -374.5229
  192.0461
  324.8348
  543.0801
  594.4064
  659.9856
  865.5508
  878.7831
 1131.5101
 1157.8039
 1196.1888
 1234.6662
 1346.4790
 1444.8083
 1595.6091
 1842.0378
 1983.2262
 3342.4859
 3391.9361
 3427.8225
 3859.8853
[FR-NORM-COORD] # Displacements in bohr
vibration  1
      +0.006     -0.012     -0.005
      -0.010     +0.006     +0.040
      +0.077     +0.007     -0.027
      -0.002     -0.013     -0.041
      -0.008     +0.008     +0.013
      +0.002     -0.022     -0.099
      -0.005     +0.012     -0.007
      -0.039     +0.020     +0.097
      -0.961     -0.018     +0.210
vibration  2
      -0.004     +0.005     -0.051
      -0.013     -0.000     +0.156
      -0.031     -0.004     -0.077
      -0.001     -0.021     -0.236
      +0.029     +0.019     +0.187
      -0.027     -0.077     -0.600
      +0.015     -0.018     +0.164
      +0.094     +0.095     +0.567
      +0.329     +0.038     -0.176
vibration  3
      -0.003     -0.120     -0.003
      -0.118     +0.061     -0.000
      +0.248     -0.100     -0.011
      +0.007     -0.081     +0.007
      -0.184     +0.213     +0.012
      +0.215     -0.067     +0.024
      -0.057     +0.516     +0.027
      -0.504     +0.178     -0.025
      +0.425     -0.148     -0.026
vibration  4
      -0.028     -0.032     -0.175
      -0.080     +0.017     +0.065
      -0.002     -0.026     +0.055
      +0.030     +0.052     -0.065
      +0.084     +0.009     +0.018
      +0.062     +0.126     +0.425
      +0.056     +0.007     +0.615
      +0.183     -0.073     -0.465
      -0.004     -0.262     +0.179
vibration  5
      -0.051     -0.114     +0.151
      -0.256     +0.189     -0.068
      -0.098     -0.177     -0.035
      +0.204     +0.047     +0.054
      +0.251     +0.046     -0.027
      +0.391     +0.004     -0.226
      +0.208     -0.113     -0.389
      +0.382     +0.113     +0.273
      -0.173     +0.063     -0.150
vibration  6
      +0.156     +0.012     -0.054
      +0.064     +0.193     +0.020
      -0.204     +0.013     +0.009
      +0.125     -0.272     -0.013
      -0.050     -0.032     +0.014
      +0.073     -0.246     +0.164
      +0.160     +0.488     +0.172
      -0.584     -0.094     -0.147
      -0.184     +0.061     -0.020
vibration  7
      -0.070     -0.023     -0.207
      -0.078     -0.079     +0.053
      -0.002     +0.174     -0.009
      +0.096     -0.064     +0.160
      +0.064     -0.008     -0.003
      +0.094     -0.113     -0.130
      +0.148     +0.116     -0.601
      -0.159     +0.044     +0.341
      +0.127     -0.426     +0.294
vibration  8
      -0.145     -0.017     +0.212
      -0.098     -0.147     -0.063
      +0.038     +0.220     -0.017
      +0.116     -0.125     -0.126
      +0.090     -0.008     +0.004
      +0.175     -0.088     +0.150
      +0.211     +0.320     +0.469
      -0.170     -0.077     -0.286
      +0.015     +0.480     -0.142
vibration  9
      +0.082     -0.132     +0.038
      +0.005     +0.024     -0.006
      -0.036     +0.110     -0.028
      +0.011     -0.049     -0.005
      -0.107     +0.055     -0.023
      +0.498     -0.021     +0.053
      -0.352     -0.500     +0.170
      +0.471     +0.093     +0.056
      +0.036     -0.191     +0.130
vibration  10
      +0.007     -0.010     -0.000
      -0.002     +0.002     +0.002
      -0.004     +0.009     -0.004
      +0.002     +0.009     +0.067
      -0.001     +0.011     +0.043
      +0.017     -0.115     -0.740
      -0.020     -0.032     +0.075
      +0.003     -0.116     -0.640
      -0.010     -0.033     +0.021
vibration  11
      +0.004     -0.007     -0.012
      -0.002     -0.003     +0.001
      +0.001     +0.003     +0.013
      +0.004     -0.020     -0.086
      -0.007     +0.033     +0.157
      +0.076     +0.050     +0.352
      -0.062     -0.199     -0.737
      +0.020     -0.082     -0.461
      -0.026     +0.152     -0.063
vibration  12
      +0.012     -0.023     +0.137
      +0.018     +0.024     -0.021
      -0.019     +0.021     -0.078
      -0.030     +0.039     -0.061
      +0.036     -0.019     +0.032
      -0.234     +0.055     +0.086
      +0.104     +0.134     -0.070
      -0.174     -0.053     -0.105
      +0.103     -0.822     +0.366
vibration  13
      +0.209     -0.345     -0.029
      -0.060     +0.016     +0.002
      -0.016     +0.114     +0.032
      -0.092     +0.176     -0.005
      +0.050     -0.065     +0.004
      -0.496     +0.166     -0.025
      +0.138     +0.162     -0.058
      -0.421     -0.081     +0.078
      +0.002     +0.481     -0.167
vibration  14
      -0.018     +0.015     -0.003
      +0.015     +0.007     +0.001
      +0.001     -0.007     -0.001
      -0.024     +0.103     -0.017
      -0.018     -0.119     +0.018
      +0.852     +0.147     -0.045
      +0.036     +0.035     +0.001
      -0.442     -0.148     +0.051
      +0.007     -0.019     +0.004
vibration  15
      +0.011     -0.024     -0.002
      +0.015     +0.008     +0.001
      -0.002     +0.009     +0.001
      -0.129     -0.031     +0.007
      +0.002     -0.024     +0.007
      +0.253     -0.022     -0.002
      +0.317     +0.648     -0.133
      +0.613     +0.022     -0.040
      -0.015     +0.016     -0.000
vibration  16
      -0.057     -0.043     -0.011
      +0.074     +0.035     +0.005
      -0.003     +0.004     +0.003
      -0.332     -0.162     +0.032
      +0.306     +0.191     -0.041
      +0.321     -0.189     +0.033
      +0.058     -0.500     +0.091
      -0.526     +0.196     -0.002
      +0.007     +0.037     -0.019
vibration  17
      +0.641     +0.410     +0.047
      -0.405     -0.261     -0.023
      -0.021     -0.026     -0.013
      -0.152     -0.056     +0.002
      +0.063     +0.046     -0.010
      +0.299     -0.014     +0.015
      +0.004     -0.099     +0.035
      -0.129     +0.059     -0.008
      +0.014     -0.163     +0.067
vibration  18
      -0.000     +0.001     -0.000
      +0.000     -0.000     +0.000
      -0.000     -0.000     +0.000
      -0.008     +0.008     -0.001
      +0.061     +0.032     -0.008
      +0.007     -0.143     +0.022
      -0.682     +0.301     -0.035
      +0.048     -0.633     +0.118
      -0.000     -0.001     -0.000
vibration  19
      +0.003     +0.001     +0.000
      -0.001     -0.001     -0.000
      +0.000     -0.000     -0.000
      +0.001     +0.083     -0.013
      +0.001     -0.031     +0.006
      +0.040     -0.936     +0.144
      -0.069     +0.031     -0.004
      -0.021     +0.290     -0.053
      +0.001     +0.000     +0.001
vibration  20
      -0.002     -0.001     -0.000
      +0.000     +0.000     +0.000
      +0.001     +0.000     +0.000
      +0.001     -0.025     +0.004
      +0.054     -0.077     +0.013
      -0.008     +0.272     -0.042
      -0.600     +0.252     -0.028
      -0.036     +0.688     -0.129
      -0.002     +0.000     -0.002
vibration  21
      +0.001     -0.001     +0.002
      -0.001     -0.001     +0.000
      +0.011     +0.031     +0.053
      +0.000     -0.000     -0.000
      -0.000     -0.000     +0.000
      +0.001     -0.002     +0.000
      +0.001     -0.001     -0.000
      -0.001     -0.001     +0.000
      -0.185     -0.473     -0.859
