[Molden Format]
[FR-COORD] # Coordinates in bohr
  C    -1.245414    +1.271314    +0.000000 
  C    +1.245414    +1.271314    -0.000000 
  H    -2.234300    +3.044914    -0.000000 
  H    +2.234300    +3.044914    +0.000000 
  C    +2.856958    -1.096649    -0.000000 
  C    -2.856958    -1.096649    +0.000000 
  H    +2.478279    -2.247938    -1.656136 
  H    +4.848617    -0.628789    -0.000039 
  H    +2.478335    -2.247898    +1.656177 
  H    -2.478279    -2.247938    +1.656136 
  H    -4.848617    -0.628789    +0.000039 
  H    -2.478335    -2.247898    -1.656177 
[FREQ] # Frequencies in cm^-1
  -82.4696
  -74.2388
  258.0695
  464.2401
  648.3010
  768.2014
  925.1186
 1036.2080
 1121.0901
 1142.0111
 1170.3010
 1213.9953
 1265.3030
 1401.5502
 1556.1240
 1577.9820
 1582.2630
 1659.9787
 1660.5729
 1664.5430
 1675.9337
 1866.0599
 3186.6863
 3187.3179
 3226.9405
 3230.8371
 3261.8969
 3263.6543
 3319.5518
 3348.0171
[FR-NORM-COORD] # Displacements in bohr
vibration  1
      +0.000     +0.000     +0.027
      +0.000     -0.000     +0.027
      +0.000     +0.000     +0.099
      +0.000     -0.000     +0.099
      -0.000     +0.000     -0.027
      -0.000     -0.000     -0.027
      -0.301     -0.177     +0.167
      -0.000     -0.000     -0.435
      +0.301     +0.177     +0.167
      -0.301     +0.177     +0.167
      -0.000     +0.000     -0.435
      +0.301     -0.177     +0.167
vibration  2
      +0.000     -0.000     -0.013
      -0.000     -0.000     +0.013
      +0.000     -0.000     -0.031
      -0.000     -0.000     +0.031
      +0.000     +0.000     +0.034
      -0.000     +0.000     -0.034
      -0.280     -0.212     +0.248
      -0.000     -0.000     -0.357
      +0.280     +0.212     +0.248
      +0.280     -0.212     -0.248
      +0.000     -0.000     +0.357
      -0.280     +0.212     -0.248
vibration  3
      +0.003     +0.093     -0.000
      -0.003     +0.093     +0.000
      -0.094     +0.035     -0.000
      +0.094     +0.035     +0.000
      -0.240     -0.066     +0.000
      +0.240     -0.066     -0.000
      -0.381     -0.024     +0.003
      -0.185     -0.306     -0.000
      -0.381     -0.024     -0.003
      +0.381     -0.024     -0.003
      +0.185     -0.306     +0.000
      +0.381     -0.024     +0.003
vibration  4
      +0.000     -0.000     +0.230
      -0.000     -0.000     -0.230
      +0.000     -0.000     +0.434
      -0.000     +0.000     -0.434
      +0.000     +0.000     +0.059
      -0.000     +0.000     -0.059
      +0.158     -0.226     +0.179
      +0.000     -0.000     +0.197
      -0.158     +0.226     +0.179
      -0.158     -0.226     -0.179
      -0.000     -0.000     -0.197
      +0.158     +0.226     -0.179
vibration  5
      -0.149     +0.161     +0.000
      -0.149     -0.161     +0.000
      -0.033     +0.223     -0.000
      -0.033     -0.223     -0.000
      +0.095     -0.089     -0.000
      +0.095     +0.089     -0.000
      +0.342     -0.156     -0.010
      +0.002     +0.319     +0.000
      +0.342     -0.156     +0.010
      +0.342     +0.156     -0.010
      +0.002     -0.319     +0.000
      +0.342     +0.156     +0.010
vibration  6
      -0.000     +0.000     -0.070
      -0.000     -0.000     -0.070
      +0.000     +0.000     +0.627
      +0.000     -0.000     +0.627
      +0.000     +0.000     -0.007
      +0.000     -0.000     -0.007
      +0.115     -0.153     +0.080
      +0.000     -0.000     +0.123
      -0.115     +0.153     +0.080
      +0.115     +0.153     +0.080
      +0.000     +0.000     +0.123
      -0.115     -0.153     +0.080
vibration  7
      +0.066     -0.228     +0.000
      -0.066     -0.228     -0.000
      +0.183     -0.179     -0.000
      -0.183     -0.179     +0.000
      -0.185     +0.184     -0.000
      +0.185     +0.184     +0.000
      +0.014     +0.121     -0.004
      -0.254     +0.465     +0.000
      +0.014     +0.121     +0.004
      -0.014     +0.121     +0.004
      +0.254     +0.465     -0.000
      -0.014     +0.121     -0.004
vibration  8
      -0.101     -0.148     -0.000
      -0.101     +0.148     -0.000
      -0.372     -0.299     +0.000
      -0.372     +0.299     +0.000
      +0.127     -0.138     +0.000
      +0.127     +0.138     +0.000
      -0.059     -0.096     +0.011
      +0.184     -0.381     -0.000
      -0.059     -0.096     -0.011
      -0.059     +0.096     +0.011
      +0.184     +0.381     -0.000
      -0.059     +0.096     -0.011
vibration  9
      -0.000     -0.000     -0.038
      +0.000     -0.000     +0.038
      +0.000     +0.000     +0.579
      -0.000     +0.000     -0.579
      +0.000     +0.000     +0.062
      -0.000     +0.000     -0.062
      -0.128     +0.224     -0.071
      -0.000     -0.000     -0.126
      +0.128     -0.224     -0.071
      +0.128     +0.224     +0.071
      +0.000     -0.000     +0.126
      -0.128     -0.224     +0.071
vibration  10
      +0.012     +0.064     -0.000
      -0.012     +0.064     +0.000
      -0.230     -0.069     +0.000
      +0.230     -0.069     -0.000
      -0.061     -0.075     +0.000
      +0.061     -0.075     -0.000
      +0.302     -0.116     -0.048
      -0.171     +0.432     +0.000
      +0.302     -0.116     +0.048
      -0.302     -0.116     +0.048
      +0.171     +0.432     -0.000
      -0.302     -0.116     -0.048
vibration  11
      +0.000     +0.000     -0.084
      +0.000     -0.000     -0.084
      +0.000     +0.000     +0.230
      +0.000     -0.000     +0.230
      -0.000     +0.000     +0.104
      -0.000     -0.000     +0.104
      -0.190     +0.373     -0.123
      -0.000     +0.000     -0.220
      +0.190     -0.373     -0.123
      -0.190     -0.373     -0.123
      -0.000     -0.000     -0.220
      +0.190     +0.373     -0.123
vibration  12
      +0.000     -0.000     +0.138
      -0.000     -0.000     -0.138
      +0.000     +0.000     -0.397
      -0.000     +0.000     +0.397
      -0.000     +0.000     +0.093
      +0.000     +0.000     -0.093
      -0.155     +0.321     -0.103
      -0.000     +0.000     -0.200
      +0.155     -0.321     -0.103
      +0.155     +0.321     +0.103
      +0.000     +0.000     +0.200
      -0.155     -0.321     +0.103
vibration  13
      -0.052     +0.129     +0.000
      -0.052     -0.129     +0.000
      -0.014     +0.151     -0.000
      -0.014     -0.151     -0.000
      +0.091     +0.085     -0.000
      +0.091     -0.085     -0.000
      -0.322     +0.120     +0.066
      +0.194     -0.400     -0.000
      -0.322     +0.120     -0.066
      -0.322     -0.120     +0.066
      +0.194     +0.400     -0.000
      -0.322     -0.120     -0.066
vibration  14
      +0.046     +0.020     -0.000
      -0.046     +0.020     +0.000
      +0.604     +0.334     -0.000
      -0.604     +0.334     +0.000
      -0.015     -0.048     -0.000
      +0.015     -0.048     +0.000
      +0.061     -0.033     -0.025
      -0.042     +0.074     +0.000
      +0.061     -0.033     +0.025
      -0.061     -0.033     +0.025
      +0.042     +0.074     -0.000
      -0.061     -0.033     -0.025
vibration  15
      -0.060     -0.074     -0.000
      -0.060     +0.074     -0.000
      +0.478     +0.230     -0.000
      +0.478     -0.230     -0.000
      -0.009     +0.049     -0.000
      -0.009     -0.049     -0.000
      +0.135     -0.182     +0.112
      +0.076     -0.272     +0.000
      +0.135     -0.182     -0.112
      +0.135     +0.182     +0.112
      +0.076     +0.272     +0.000
      +0.135     +0.182     -0.112
vibration  16
      +0.043     +0.055     -0.000
      +0.043     -0.055     -0.000
      -0.370     -0.177     +0.000
      -0.370     +0.177     +0.000
      -0.048     +0.066     -0.000
      -0.048     -0.066     -0.000
      +0.195     -0.251     +0.148
      +0.038     -0.271     +0.000
      +0.195     -0.251     -0.148
      +0.195     +0.251     +0.148
      +0.038     +0.271     +0.000
      +0.195     +0.251     -0.148
vibration  17
      +0.005     -0.005     -0.000
      -0.005     -0.005     +0.000
      -0.028     -0.021     +0.000
      +0.028     -0.021     -0.000
      +0.045     -0.074     +0.000
      -0.045     -0.074     -0.000
      -0.239     +0.308     -0.180
      -0.065     +0.344     -0.000
      -0.239     +0.308     +0.180
      +0.239     +0.308     +0.180
      +0.065     +0.344     +0.000
      +0.239     +0.308     -0.180
vibration  18
      +0.010     -0.014     -0.000
      +0.010     +0.014     -0.000
      +0.011     -0.015     +0.000
      +0.011     +0.015     +0.000
      +0.036     +0.009     -0.000
      +0.036     -0.009     -0.000
      -0.245     -0.266     +0.247
      -0.060     +0.333     +0.000
      -0.245     -0.266     -0.247
      -0.245     +0.266     +0.247
      -0.060     -0.333     +0.000
      -0.245     +0.266     -0.247
vibration  19
      -0.022     -0.010     +0.000
      +0.022     -0.010     -0.000
      -0.000     +0.003     +0.000
      +0.000     +0.003     -0.000
      -0.044     -0.008     -0.000
      +0.044     -0.008     +0.000
      +0.256     +0.266     -0.246
      +0.050     -0.318     +0.000
      +0.257     +0.266     +0.246
      -0.256     +0.266     +0.246
      -0.050     -0.318     -0.000
      -0.257     +0.266     -0.246
vibration  20
      -0.000     -0.000     -0.014
      +0.000     -0.000     +0.014
      -0.000     +0.000     -0.001
      +0.000     +0.000     +0.001
      -0.000     -0.000     +0.038
      +0.000     -0.000     -0.038
      +0.345     -0.034     -0.040
      +0.000     -0.000     -0.505
      -0.345     +0.035     -0.040
      -0.345     -0.034     +0.040
      -0.000     -0.000     +0.505
      +0.345     +0.035     +0.040
vibration  21
      -0.000     -0.000     -0.011
      -0.000     +0.000     -0.011
      +0.000     +0.000     +0.013
      +0.000     -0.000     +0.013
      -0.000     -0.000     -0.039
      -0.000     +0.000     -0.039
      -0.345     +0.032     +0.038
      +0.000     +0.000     +0.505
      +0.345     -0.032     +0.038
      -0.345     -0.032     +0.038
      +0.000     -0.000     +0.505
      +0.345     +0.032     +0.038
vibration  22
      +0.462     +0.052     +0.000
      -0.462     +0.052     -0.000
      -0.176     -0.382     -0.000
      +0.176     -0.382     +0.000
      +0.046     -0.005     -0.000
      -0.046     -0.005     +0.000
      +0.014     +0.059     -0.031
      +0.117     -0.286     +0.000
      +0.014     +0.059     +0.031
      -0.014     +0.059     +0.031
      -0.117     -0.286     -0.000
      -0.014     +0.059     -0.031
vibration  23
      -0.000     -0.001     -0.000
      +0.000     -0.001     +0.000
      -0.005     +0.010     -0.000
      +0.005     +0.010     +0.000
      +0.006     -0.035     +0.000
      -0.006     -0.035     -0.000
      +0.089     +0.248     +0.380
      -0.256     -0.070     +0.000
      +0.089     +0.248     -0.380
      -0.089     +0.248     -0.380
      +0.256     -0.070     -0.000
      -0.089     +0.248     +0.380
vibration  24
      +0.001     +0.000     -0.000
      +0.001     -0.000     -0.000
      -0.002     -0.001     -0.000
      -0.002     +0.001     -0.000
      -0.006     +0.036     -0.000
      -0.006     -0.036     -0.000
      -0.092     -0.249     -0.380
      +0.254     +0.072     -0.000
      -0.092     -0.249     +0.380
      -0.092     +0.249     -0.380
      +0.254     -0.072     -0.000
      -0.092     +0.249     +0.380
vibration  25
      +0.000     +0.000     +0.000
      -0.000     -0.000     +0.000
      +0.000     -0.000     +0.004
      +0.000     +0.000     +0.004
      +0.000     +0.000     +0.065
      +0.000     -0.000     +0.065
      -0.100     -0.284     -0.396
      +0.000     +0.000     +0.018
      +0.100     +0.284     -0.396
      -0.100     +0.284     -0.396
      +0.000     -0.000     +0.018
      +0.100     -0.284     -0.396
vibration  26
      +0.000     +0.000     +0.000
      -0.000     +0.000     -0.000
      +0.000     -0.000     +0.003
      -0.000     -0.000     -0.003
      +0.000     -0.000     -0.065
      -0.000     -0.000     +0.065
      +0.102     +0.283     +0.396
      -0.000     -0.000     -0.020
      -0.102     -0.283     +0.396
      -0.102     +0.283     -0.396
      +0.000     -0.000     +0.020
      +0.102     -0.283     -0.396
vibration  27
      -0.005     +0.008     -0.000
      -0.005     -0.008     -0.000
      +0.058     -0.101     +0.000
      +0.058     +0.101     +0.000
      +0.057     +0.028     -0.000
      +0.057     -0.028     -0.000
      -0.021     -0.092     -0.150
      -0.629     -0.154     +0.000
      -0.021     -0.092     +0.150
      -0.021     +0.092     -0.150
      -0.629     +0.154     +0.000
      -0.021     +0.092     +0.150
vibration  28
      +0.005     -0.005     -0.000
      -0.005     -0.005     +0.000
      -0.043     +0.073     -0.000
      +0.043     +0.073     +0.000
      +0.057     +0.028     -0.000
      -0.057     +0.028     +0.000
      -0.020     -0.094     -0.153
      -0.632     -0.155     +0.000
      -0.020     -0.094     +0.153
      +0.020     -0.094     +0.153
      +0.632     -0.155     -0.000
      +0.020     -0.094     -0.153
vibration  29
      -0.029     +0.051     -0.000
      -0.029     -0.051     -0.000
      +0.341     -0.606     +0.000
      +0.341     +0.606     +0.000
      -0.009     -0.004     +0.000
      -0.009     +0.004     +0.000
      +0.004     +0.016     +0.024
      +0.104     +0.023     -0.000
      +0.004     +0.016     -0.024
      +0.004     -0.016     +0.024
      +0.104     -0.023     -0.000
      +0.004     -0.016     -0.024
vibration  30
      +0.037     -0.052     +0.000
      -0.037     -0.052     -0.000
      -0.346     +0.607     -0.000
      +0.346     +0.607     +0.000
      -0.007     -0.002     -0.000
      +0.007     -0.002     +0.000
      -0.000     +0.008     +0.012
      +0.081     +0.015     -0.000
      -0.000     +0.008     -0.012
      +0.000     +0.008     -0.012
      -0.081     +0.015     +0.000
      +0.000     +0.008     +0.012
