[Molden Format]
[FR-COORD] # Coordinates in bohr
  C    +1.113229    -1.233803    +0.031205 
  C    +0.803714    +1.367102    +0.015475 
  C    -1.588608    +2.420400    -0.025886 
  C    -3.702414    +0.896933    -0.050839 
  C    -3.426123    -1.705865    -0.007479 
  C    -1.033058    -2.744683    +0.033546 
  O    +2.839998    +3.031311    -0.018973 
  H    -1.739558    +4.436359    -0.048590 
  H    -5.548220    +1.729165    -0.089140 
  H    -5.055511    -2.908229    -0.012019 
  H    -0.812135    -4.760700    +0.053038 
  C    +3.709697    -2.443087    -0.048197 
  H    +5.193295    -1.104544    +0.375881 
  H    +3.837603    -3.988787    +1.288998 
  H    +4.079640    -3.184539    -1.923810 
  H    +4.070579    +2.667428    +1.278015 
[FREQ] # Frequencies in cm^-1
 -171.5135
  -96.7072
  196.5275
  305.4672
  359.8608
  461.4299
  519.0389
  584.9523
  616.5008
  650.5913
  803.0864
  849.2043
  888.0701
  930.7458
 1028.8387
 1091.6687
 1129.5443
 1142.5215
 1182.8487
 1203.4419
 1214.0556
 1258.6520
 1287.1703
 1304.9796
 1353.2628
 1393.6669
 1464.2400
 1578.7282
 1628.0487
 1658.8869
 1664.9567
 1674.0754
 1753.4972
 1782.2214
 3204.8776
 3252.1260
 3285.9240
 3345.7898
 3362.3515
 3380.2094
 3399.9963
 3882.8807
[FR-NORM-COORD] # Displacements in bohr
vibration  1
      -0.005     -0.002     -0.016
      -0.007     -0.004     +0.001
      -0.003     +0.001     +0.006
      -0.006     +0.001     +0.007
      -0.002     +0.002     -0.002
      -0.004     -0.004     -0.017
      +0.039     -0.035     -0.001
      -0.006     +0.001     +0.002
      -0.007     -0.001     +0.010
      -0.004     +0.003     -0.003
      -0.006     -0.004     -0.032
      +0.003     +0.019     -0.009
      -0.008     +0.169     -0.460
      +0.167     +0.303     +0.307
      -0.173     -0.375     +0.113
      -0.295     +0.308     +0.420
vibration  2
      -0.011     -0.007     +0.004
      -0.012     -0.007     -0.009
      -0.002     +0.000     -0.005
      -0.009     +0.001     +0.007
      -0.007     +0.004     +0.014
      -0.007     -0.007     +0.012
      +0.054     -0.060     -0.041
      -0.005     +0.001     -0.026
      -0.009     -0.000     +0.005
      -0.009     +0.006     +0.021
      -0.014     -0.007     +0.020
      +0.008     +0.046     -0.008
      -0.066     +0.010     +0.357
      -0.077     -0.198     -0.284
      +0.169     +0.398     -0.116
      -0.365     +0.389     +0.493
vibration  3
      +0.000     -0.001     -0.053
      +0.000     -0.001     -0.024
      -0.003     +0.000     +0.174
      -0.005     +0.004     +0.166
      -0.001     +0.000     -0.114
      -0.000     -0.001     -0.193
      +0.001     -0.000     -0.197
      -0.005     +0.001     +0.302
      -0.007     +0.007     +0.326
      +0.000     -0.002     -0.212
      -0.000     -0.002     -0.314
      +0.005     -0.009     +0.232
      -0.040     +0.005     +0.346
      -0.150     +0.055     +0.322
      +0.219     -0.097     +0.310
      +0.021     +0.140     -0.175
vibration  4
      +0.010     +0.004     -0.238
      +0.007     +0.007     -0.193
      -0.000     -0.002     -0.192
      -0.003     -0.000     +0.116
      +0.001     +0.001     +0.195
      +0.007     +0.006     -0.132
      -0.012     +0.036     +0.178
      -0.003     -0.003     -0.209
      -0.007     +0.001     +0.335
      +0.001     +0.000     +0.494
      +0.010     +0.007     -0.111
      +0.004     -0.039     +0.094
      -0.030     -0.053     +0.265
      -0.212     +0.009     +0.169
      +0.261     -0.112     +0.175
      -0.114     -0.154     +0.220
vibration  5
      -0.052     -0.029     -0.013
      -0.037     -0.042     -0.013
      -0.004     +0.018     -0.018
      -0.013     +0.024     +0.011
      -0.038     +0.017     +0.012
      -0.046     -0.035     -0.017
      +0.053     -0.184     +0.021
      +0.021     +0.020     -0.015
      -0.009     +0.035     +0.033
      -0.058     +0.045     +0.033
      -0.075     -0.038     -0.023
      +0.077     +0.247     +0.022
      -0.081     +0.427     -0.023
      +0.289     +0.303     +0.065
      +0.188     +0.253     +0.042
      +0.228     -0.527     -0.251
vibration  6
      -0.055     +0.190     +0.002
      -0.022     +0.180     -0.020
      -0.108     +0.056     +0.002
      -0.022     -0.138     +0.009
      +0.053     -0.129     -0.013
      +0.095     +0.047     +0.005
      +0.228     -0.103     +0.002
      -0.334     +0.042     +0.012
      -0.068     -0.237     +0.025
      +0.109     -0.204     -0.027
      +0.286     +0.070     +0.015
      -0.196     +0.011     +0.009
      -0.011     -0.195     -0.002
      -0.396     -0.006     +0.008
      -0.302     -0.052     +0.012
      +0.140     -0.369     +0.012
vibration  7
      +0.012     -0.002     -0.219
      -0.010     -0.002     -0.144
      -0.015     +0.005     +0.189
      -0.014     +0.008     -0.114
      +0.004     +0.012     -0.047
      +0.003     +0.011     +0.182
      -0.005     -0.010     +0.027
      -0.015     +0.010     +0.569
      -0.017     -0.001     -0.172
      +0.010     +0.004     -0.007
      -0.013     +0.014     +0.599
      +0.027     -0.009     +0.004
      -0.013     +0.006     +0.104
      -0.121     +0.059     +0.098
      +0.230     -0.107     +0.084
      -0.073     -0.107     +0.067
vibration  8
      +0.156     +0.036     +0.066
      -0.170     -0.009     -0.019
      -0.180     +0.102     -0.035
      -0.174     +0.103     +0.046
      +0.130     +0.136     -0.033
      +0.150     +0.138     +0.003
      -0.105     -0.215     -0.005
      -0.078     +0.110     -0.073
      -0.246     -0.054     +0.103
      +0.237     -0.010     -0.103
      +0.049     +0.127     -0.050
      +0.211     -0.151     -0.008
      +0.369     -0.313     -0.042
      +0.071     -0.191     -0.038
      +0.039     -0.174     -0.033
      -0.228     -0.306     +0.082
vibration  9
      -0.014     -0.012     +0.129
      +0.024     -0.009     -0.239
      +0.031     -0.014     -0.095
      +0.026     -0.000     +0.198
      -0.009     -0.013     -0.220
      -0.021     -0.020     +0.124
      -0.004     +0.041     +0.063
      +0.032     -0.013     +0.052
      +0.030     +0.028     +0.613
      -0.024     +0.009     -0.463
      -0.017     -0.019     +0.274
      -0.019     +0.018     -0.007
      +0.006     +0.024     -0.111
      +0.129     -0.034     -0.084
      -0.185     +0.097     -0.073
      -0.111     -0.138     +0.114
vibration  10
      -0.098     -0.019     -0.019
      -0.128     -0.052     -0.003
      +0.086     +0.214     +0.009
      +0.285     +0.064     -0.007
      +0.308     +0.042     +0.010
      +0.137     -0.196     -0.003
      -0.240     -0.109     -0.004
      +0.189     +0.216     +0.030
      +0.201     -0.133     -0.003
      +0.186     +0.213     +0.037
      +0.153     -0.191     +0.015
      -0.248     +0.071     +0.007
      -0.207     +0.017     +0.016
      -0.304     +0.068     +0.010
      -0.248     +0.040     +0.018
      -0.232     +0.021     +0.018
vibration  11
      +0.101     +0.106     +0.003
      +0.103     -0.140     -0.017
      +0.125     -0.321     +0.008
      -0.041     -0.004     -0.013
      +0.012     +0.049     +0.005
      +0.085     +0.313     -0.014
      -0.136     -0.119     +0.006
      +0.304     -0.314     +0.073
      +0.061     +0.211     +0.019
      +0.182     -0.172     +0.057
      +0.149     +0.326     +0.003
      -0.201     +0.128     +0.008
      -0.104     +0.023     -0.009
      -0.286     +0.115     -0.001
      -0.265     +0.094     +0.009
      -0.064     +0.044     -0.024
vibration  12
      +0.001     +0.007     -0.183
      +0.000     -0.003     +0.187
      +0.001     -0.005     -0.067
      -0.003     +0.002     +0.141
      +0.003     -0.003     -0.083
      +0.002     +0.013     +0.111
      -0.006     -0.018     -0.004
      +0.018     -0.010     -0.644
      +0.002     +0.002     -0.087
      +0.016     -0.018     -0.457
      +0.007     +0.015     +0.230
      -0.007     +0.005     -0.038
      -0.070     +0.025     +0.118
      -0.198     +0.102     +0.097
      +0.265     -0.129     +0.072
      +0.095     +0.125     -0.063
vibration  13
      -0.002     +0.002     +0.014
      +0.002     +0.001     -0.112
      +0.007     -0.004     +0.058
      +0.012     -0.003     +0.040
      -0.007     -0.000     +0.094
      -0.003     +0.004     +0.036
      -0.006     +0.007     +0.013
      +0.007     -0.007     -0.174
      +0.026     -0.001     -0.581
      -0.001     -0.005     -0.589
      +0.007     -0.000     -0.484
      +0.001     +0.000     +0.001
      -0.001     -0.001     +0.014
      -0.009     +0.009     +0.010
      +0.021     -0.004     +0.006
      -0.077     -0.114     +0.047
vibration  14
      -0.032     +0.174     +0.007
      -0.016     +0.118     +0.012
      +0.106     +0.080     +0.003
      +0.294     -0.111     -0.003
      -0.235     -0.158     -0.009
      -0.100     +0.130     -0.006
      -0.162     -0.140     -0.010
      -0.146     +0.057     +0.005
      +0.400     +0.122     +0.064
      -0.357     +0.007     +0.066
      +0.177     +0.160     +0.029
      +0.179     -0.040     -0.011
      +0.359     -0.233     +0.003
      -0.041     -0.052     +0.001
      +0.070     -0.128     +0.003
      -0.212     -0.014     +0.062
vibration  15
      -0.003     -0.004     -0.026
      -0.002     +0.004     +0.055
      +0.003     +0.006     -0.099
      -0.001     -0.006     -0.063
      -0.001     +0.000     +0.042
      +0.003     +0.008     +0.103
      -0.000     -0.009     -0.005
      -0.012     +0.012     +0.546
      -0.012     -0.005     +0.444
      +0.009     -0.012     -0.306
      +0.015     +0.003     -0.555
      -0.004     -0.006     -0.028
      -0.066     +0.032     +0.073
      -0.080     +0.066     +0.062
      +0.169     -0.071     +0.033
      +0.052     +0.086     -0.029
vibration  16
      -0.040     -0.081     +0.005
      -0.024     +0.042     -0.006
      -0.001     +0.023     +0.007
      +0.066     -0.111     +0.007
      +0.037     +0.056     -0.008
      +0.005     +0.155     -0.005
      -0.005     -0.003     +0.001
      -0.208     +0.005     -0.042
      +0.019     -0.229     -0.016
      +0.092     -0.003     +0.040
      -0.081     +0.156     +0.025
      -0.046     -0.117     +0.000
      -0.511     +0.404     -0.008
      +0.507     -0.029     +0.040
      +0.282     +0.149     -0.038
      +0.006     -0.029     -0.018
vibration  17
      +0.003     -0.000     -0.022
      +0.008     -0.003     +0.037
      +0.004     +0.026     -0.101
      -0.011     +0.006     +0.050
      -0.011     -0.021     +0.084
      +0.005     +0.006     -0.094
      -0.005     -0.013     -0.001
      +0.024     +0.036     +0.527
      -0.011     -0.004     -0.262
      +0.018     -0.060     -0.468
      +0.033     +0.015     +0.531
      -0.002     -0.009     +0.041
      +0.013     +0.017     -0.095
      +0.151     -0.092     -0.073
      -0.168     +0.109     -0.042
      +0.077     +0.123     -0.044
vibration  18
      +0.031     -0.020     +0.010
      +0.031     -0.025     -0.025
      +0.068     +0.161     +0.022
      -0.113     +0.079     -0.004
      -0.107     -0.167     -0.020
      +0.089     +0.008     +0.017
      -0.023     -0.016     +0.011
      +0.470     +0.203     -0.092
      -0.090     +0.171     -0.014
      +0.054     -0.410     +0.127
      +0.449     +0.041     -0.089
      -0.052     -0.046     -0.008
      -0.273     +0.192     +0.018
      +0.182     +0.017     +0.039
      +0.140     +0.062     -0.012
      +0.059     +0.107     -0.038
vibration  19
      +0.001     +0.001     +0.038
      +0.000     -0.000     +0.005
      -0.002     -0.004     -0.085
      +0.001     -0.002     +0.123
      +0.004     +0.004     -0.095
      -0.003     -0.001     +0.033
      +0.001     -0.003     +0.000
      -0.026     -0.000     +0.446
      +0.009     -0.020     -0.631
      -0.013     +0.026     +0.485
      -0.016     -0.005     -0.181
      +0.000     +0.005     -0.048
      -0.036     -0.003     +0.105
      -0.140     +0.099     +0.079
      +0.178     -0.114     +0.038
      +0.019     +0.036     -0.008
vibration  20
      +0.012     -0.002     +0.141
      +0.006     -0.014     -0.031
      -0.010     +0.008     +0.015
      +0.004     +0.003     -0.028
      +0.005     -0.007     +0.054
      -0.011     +0.004     -0.088
      +0.004     +0.003     +0.003
      -0.010     +0.008     -0.030
      -0.007     -0.015     +0.108
      +0.017     -0.022     -0.215
      -0.040     +0.006     +0.373
      -0.008     +0.008     -0.141
      -0.141     +0.018     +0.301
      -0.356     +0.284     +0.226
      +0.517     -0.313     +0.104
      -0.015     -0.018     +0.014
vibration  21
      -0.075     -0.017     +0.005
      -0.126     +0.135     +0.048
      +0.122     -0.119     -0.016
      -0.051     -0.027     +0.004
      -0.084     +0.102     +0.005
      +0.166     -0.079     -0.014
      +0.010     +0.037     -0.036
      +0.224     -0.117     +0.075
      +0.086     +0.274     -0.009
      -0.214     +0.272     -0.051
      +0.439     -0.053     +0.100
      +0.006     -0.037     -0.011
      -0.063     +0.034     +0.013
      +0.066     +0.009     +0.037
      +0.117     -0.012     +0.004
      -0.322     -0.488     +0.149
vibration  22
      -0.007     -0.082     -0.008
      -0.085     -0.058     +0.029
      +0.080     +0.080     -0.007
      -0.005     -0.110     +0.003
      -0.021     +0.005     -0.001
      -0.018     +0.096     -0.001
      +0.034     +0.061     -0.022
      +0.547     +0.119     +0.033
      -0.174     -0.489     +0.004
      +0.076     -0.122     +0.000
      -0.244     +0.076     +0.002
      +0.020     +0.064     +0.004
      +0.213     -0.155     -0.004
      -0.228     +0.004     -0.038
      -0.142     -0.072     +0.026
      -0.178     -0.276     +0.102
vibration  23
      -0.034     -0.015     +0.012
      +0.084     +0.088     -0.054
      +0.067     +0.020     +0.017
      -0.084     -0.087     -0.003
      -0.038     +0.092     -0.001
      +0.049     -0.036     -0.000
      -0.045     -0.075     +0.041
      +0.092     +0.027     -0.067
      -0.269     -0.490     +0.007
      -0.221     +0.338     -0.008
      +0.102     -0.033     -0.003
      +0.014     +0.016     -0.006
      +0.075     -0.060     +0.019
      -0.065     +0.009     -0.005
      -0.039     -0.051     +0.009
      +0.335     +0.523     -0.180
vibration  24
      -0.278     +0.148     +0.008
      +0.041     +0.084     -0.004
      +0.079     -0.084     +0.003
      -0.068     +0.039     -0.002
      +0.164     -0.021     +0.002
      -0.107     -0.020     -0.003
      -0.023     -0.022     +0.002
      +0.500     -0.052     +0.010
      -0.100     -0.035     -0.003
      +0.500     -0.463     +0.018
      -0.158     -0.012     +0.003
      +0.106     -0.066     -0.009
      +0.058     -0.007     +0.014
      +0.174     -0.035     +0.025
      +0.157     -0.028     -0.013
      -0.006     +0.038     -0.004
vibration  25
      +0.006     -0.119     +0.002
      +0.001     +0.113     -0.010
      +0.084     +0.033     +0.003
      -0.039     -0.043     +0.001
      -0.035     +0.032     -0.001
      +0.060     -0.009     -0.000
      -0.027     -0.025     +0.007
      -0.361     +0.002     -0.018
      +0.157     +0.401     -0.005
      +0.339     -0.478     +0.011
      -0.477     -0.073     -0.004
      -0.007     +0.043     -0.000
      +0.099     -0.081     +0.007
      -0.133     +0.001     -0.034
      -0.088     -0.066     +0.026
      +0.044     +0.096     -0.034
vibration  26
      +0.167     +0.079     -0.008
      +0.133     +0.127     +0.042
      +0.025     +0.003     -0.009
      -0.043     +0.009     -0.000
      -0.001     -0.032     +0.000
      -0.047     -0.084     +0.000
      -0.064     -0.027     -0.033
      +0.157     +0.023     +0.040
      -0.171     -0.260     +0.003
      -0.098     +0.086     -0.003
      -0.572     -0.152     +0.001
      -0.071     -0.024     +0.005
      -0.148     +0.091     -0.041
      +0.149     +0.025     +0.032
      +0.111     +0.110     -0.013
      -0.359     -0.431     +0.143
vibration  27
      -0.067     -0.060     -0.005
      +0.144     -0.038     +0.035
      +0.055     +0.037     -0.006
      -0.033     +0.045     -0.000
      +0.001     +0.023     -0.000
      -0.030     +0.011     -0.001
      -0.036     +0.016     -0.027
      -0.587     -0.007     +0.016
      -0.189     -0.285     +0.002
      +0.109     -0.123     +0.002
      +0.482     +0.069     +0.010
      +0.008     +0.029     -0.000
      +0.116     -0.088     +0.008
      -0.015     -0.005     -0.031
      +0.002     -0.053     +0.030
      -0.282     -0.330     +0.125
vibration  28
      +0.003     -0.017     +0.003
      -0.002     +0.015     -0.003
      -0.027     -0.002     -0.000
      +0.006     -0.010     +0.000
      +0.010     -0.001     +0.000
      -0.012     +0.008     -0.001
      +0.003     -0.003     +0.001
      +0.105     +0.008     +0.002
      +0.042     +0.065     -0.001
      -0.003     +0.023     +0.001
      +0.052     +0.019     -0.001
      -0.105     +0.067     +0.009
      +0.322     -0.350     -0.082
      +0.490     -0.176     -0.293
      +0.467     -0.305     +0.243
      +0.013     +0.046     +0.006
vibration  29
      +0.095     +0.053     +0.002
      -0.122     +0.017     -0.014
      +0.028     -0.070     +0.002
      +0.102     +0.092     +0.001
      -0.119     +0.099     -0.003
      -0.031     -0.080     +0.001
      +0.022     -0.004     +0.011
      -0.080     -0.099     -0.009
      -0.172     -0.547     +0.004
      +0.356     -0.557     +0.014
      +0.191     -0.073     +0.002
      -0.036     -0.019     +0.004
      +0.022     -0.042     -0.091
      +0.059     +0.043     +0.060
      +0.131     +0.124     -0.023
      +0.124     +0.135     -0.053
vibration  30
      -0.058     +0.076     -0.004
      -0.036     -0.107     -0.001
      +0.086     +0.024     +0.002
      -0.035     +0.013     -0.001
      -0.013     -0.037     +0.000
      +0.092     +0.012     +0.001
      +0.013     +0.017     +0.001
      -0.306     -0.009     -0.009
      -0.071     -0.044     -0.000
      -0.135     +0.114     -0.004
      -0.365     -0.033     -0.002
      -0.042     -0.041     -0.011
      +0.281     -0.335     -0.053
      +0.231     +0.296     +0.341
      +0.215     +0.413     -0.132
      +0.022     +0.044     +0.005
vibration  31
      +0.024     -0.037     -0.019
      +0.024     +0.034     +0.004
      -0.049     +0.002     -0.001
      +0.013     -0.032     +0.001
      +0.003     +0.033     -0.001
      -0.042     -0.007     +0.002
      -0.004     -0.006     -0.002
      +0.162     +0.021     +0.003
      +0.067     +0.077     +0.001
      +0.078     -0.060     -0.000
      +0.168     +0.015     -0.005
      -0.017     +0.001     -0.049
      +0.086     -0.285     +0.558
      +0.399     +0.329     +0.312
      -0.360     +0.064     -0.114
      -0.025     -0.005     +0.016
vibration  32
      +0.021     -0.050     +0.009
      +0.047     +0.031     +0.001
      -0.060     +0.020     -0.001
      -0.004     -0.074     +0.001
      +0.020     +0.052     -0.001
      -0.067     -0.008     -0.002
      -0.009     -0.007     -0.001
      +0.206     +0.049     +0.005
      +0.124     +0.195     -0.001
      +0.098     -0.038     +0.003
      +0.265     +0.027     +0.010
      -0.023     -0.026     +0.023
      +0.219     -0.104     -0.465
      -0.285     +0.153     +0.223
      +0.322     +0.495     -0.124
      -0.021     -0.002     +0.013
vibration  33
      -0.050     -0.279     +0.001
      -0.044     +0.241     -0.007
      -0.048     -0.142     +0.001
      +0.084     +0.289     -0.002
      +0.060     -0.240     +0.004
      +0.038     +0.131     -0.002
      -0.001     -0.021     +0.005
      +0.094     -0.148     +0.000
      -0.233     -0.396     +0.000
      -0.285     +0.203     -0.005
      -0.108     +0.128     -0.000
      -0.003     +0.018     -0.000
      +0.230     -0.189     -0.105
      -0.159     +0.174     +0.190
      +0.016     +0.253     -0.090
      +0.048     +0.085     -0.020
vibration  34
      +0.197     +0.001     -0.000
      -0.244     +0.065     -0.017
      +0.310     +0.015     +0.007
      -0.164     -0.040     -0.002
      +0.207     -0.105     +0.004
      -0.307     +0.010     -0.003
      +0.018     -0.007     +0.013
      -0.437     -0.051     -0.019
      -0.076     +0.203     -0.007
      -0.086     +0.321     -0.006
      +0.459     +0.101     -0.001
      -0.022     +0.001     -0.002
      -0.029     -0.011     +0.041
      +0.042     +0.026     +0.024
      -0.032     +0.015     -0.012
      +0.135     +0.141     -0.071
vibration  35
      -0.000     -0.000     -0.000
      +0.000     +0.001     -0.000
      -0.000     -0.000     -0.000
      +0.000     +0.000     -0.000
      +0.000     -0.000     -0.000
      -0.001     +0.001     +0.000
      -0.000     +0.000     -0.000
      +0.000     +0.001     +0.000
      -0.001     +0.001     +0.000
      +0.000     -0.000     +0.000
      +0.003     -0.013     +0.000
      +0.033     -0.037     -0.019
      -0.242     -0.244     -0.081
      -0.022     +0.420     -0.381
      -0.118     +0.259     +0.684
      +0.000     +0.001     +0.001
vibration  36
      +0.001     -0.000     -0.000
      -0.000     -0.000     -0.000
      +0.000     +0.000     -0.000
      -0.000     -0.000     -0.000
      -0.000     +0.000     +0.000
      +0.000     -0.001     +0.000
      +0.000     -0.000     +0.000
      -0.000     -0.001     -0.000
      -0.000     +0.000     -0.000
      -0.001     -0.000     -0.000
      -0.002     +0.012     -0.002
      -0.006     +0.016     -0.089
      +0.135     +0.134     +0.016
      +0.034     -0.566     +0.472
      -0.111     +0.242     +0.583
      +0.001     +0.000     -0.000
vibration  37
      -0.000     +0.001     +0.000
      +0.001     +0.000     -0.000
      -0.000     -0.000     +0.000
      -0.000     -0.000     -0.000
      +0.000     +0.000     +0.000
      +0.000     -0.002     +0.000
      -0.001     +0.000     -0.000
      -0.000     +0.004     -0.000
      +0.001     -0.001     -0.000
      -0.004     -0.003     -0.000
      -0.004     +0.023     -0.001
      +0.050     +0.074     +0.007
      -0.653     -0.615     -0.196
      +0.030     -0.256     +0.246
      +0.040     -0.030     -0.137
      +0.003     -0.003     +0.004
vibration  38
      +0.003     +0.001     +0.000
      +0.000     +0.001     -0.000
      +0.000     -0.004     +0.000
      -0.013     +0.005     -0.000
      +0.028     +0.023     +0.000
      +0.007     -0.076     +0.001
      -0.000     -0.000     +0.000
      -0.004     +0.045     -0.001
      +0.149     -0.066     +0.003
      -0.349     -0.262     -0.001
      -0.093     +0.874     -0.009
      -0.001     -0.002     +0.001
      +0.010     +0.011     +0.003
      -0.004     +0.018     -0.015
      -0.003     +0.001     +0.005
      -0.000     +0.000     -0.001
vibration  39
      -0.001     -0.001     +0.000
      -0.000     -0.000     -0.000
      +0.003     -0.016     +0.000
      -0.061     +0.026     -0.001
      +0.034     +0.021     +0.000
      -0.005     +0.034     -0.000
      -0.000     +0.000     +0.000
      -0.019     +0.194     -0.002
      +0.705     -0.316     +0.015
      -0.374     -0.270     -0.001
      +0.042     -0.378     +0.004
      +0.000     +0.001     -0.000
      -0.001     -0.002     -0.000
      +0.002     -0.006     +0.005
      +0.001     -0.000     -0.001
      +0.000     +0.000     -0.001
vibration  40
      +0.001     +0.001     +0.000
      -0.001     +0.000     -0.000
      +0.004     -0.029     +0.000
      -0.039     +0.021     -0.001
      -0.054     -0.040     -0.000
      +0.005     -0.024     +0.000
      +0.000     -0.000     +0.000
      -0.030     +0.341     -0.004
      +0.447     -0.207     +0.009
      +0.603     +0.446     +0.002
      -0.032     +0.260     -0.003
      -0.000     -0.001     +0.000
      +0.001     +0.002     +0.001
      -0.001     +0.004     -0.004
      -0.001     +0.001     +0.002
      +0.000     +0.001     -0.001
vibration  41
      -0.000     +0.000     +0.000
      -0.004     +0.000     -0.000
      +0.006     -0.081     +0.001
      +0.031     -0.011     +0.001
      +0.011     +0.010     +0.000
      -0.001     +0.006     -0.000
      +0.000     +0.000     +0.000
      -0.072     +0.912     -0.010
      -0.324     +0.142     -0.007
      -0.128     -0.097     -0.000
      +0.008     -0.060     +0.001
      -0.000     -0.000     -0.000
      +0.003     +0.002     +0.001
      +0.001     -0.001     +0.001
      +0.001     -0.001     -0.001
      +0.002     +0.001     -0.001
vibration  42
      +0.000     +0.000     +0.000
      -0.000     +0.002     -0.001
      +0.000     -0.000     -0.000
      -0.000     +0.000     +0.000
      +0.000     -0.000     -0.000
      -0.000     -0.000     -0.000
      -0.044     +0.010     -0.043
      +0.000     -0.000     -0.001
      +0.001     -0.000     +0.000
      +0.000     -0.000     -0.000
      +0.000     +0.001     +0.000
      -0.000     -0.000     -0.000
      +0.003     +0.004     +0.003
      +0.000     +0.002     -0.000
      -0.001     -0.001     +0.000
      +0.688     -0.189     +0.698
