[Molden Format]
[FR-COORD] # Coordinates in bohr
  C    +1.111813    -1.230635    -0.001622 
  C    +0.792885    +1.374408    +0.002060 
  C    -1.602113    +2.418552    +0.003258 
  C    -3.714505    +0.881722    +0.000806 
  C    -3.431498    -1.713079    -0.002865 
  C    -1.024756    -2.740288    -0.004039 
  O    +2.944068    +2.851736    +0.004432 
  H    -1.821070    +4.435086    +0.006111 
  H    -5.561498    +1.712645    +0.001767 
  H    -5.055126    -2.922491    -0.004791 
  H    -0.793440    -4.755214    -0.006889 
  C    +3.733871    -2.379132    -0.002942 
  H    +5.150242    -0.914112    -0.000679 
  H    +4.004055    -3.554588    +1.655287 
  H    +4.004459    -3.549851    -1.664453 
  H    +2.574331    +4.635169    +0.006934 
[FREQ] # Frequencies in cm^-1
 -107.5917
  197.2542
  280.0623
  318.8535
  341.6718
  465.0029
  515.8630
  587.4170
  627.7769
  649.7493
  808.2271
  845.4264
  890.5167
  928.6714
 1018.1021
 1101.2616
 1117.4860
 1149.3590
 1175.7396
 1194.6061
 1212.3735
 1275.1958
 1296.8715
 1318.5274
 1362.9331
 1391.5445
 1479.6626
 1573.9852
 1621.0003
 1661.3104
 1680.5634
 1683.7969
 1770.6573
 1774.5933
 3198.9159
 3240.2025
 3323.4833
 3341.8342
 3348.0492
 3365.6310
 3384.8295
 3920.6690
[FR-NORM-COORD] # Displacements in bohr
vibration  1
      +0.000     +0.000     -0.016
      -0.000     -0.000     +0.009
      -0.000     -0.000     +0.014
      -0.000     -0.000     +0.006
      +0.000     +0.000     -0.012
      +0.000     +0.000     -0.026
      -0.000     -0.000     +0.019
      -0.000     -0.000     +0.026
      -0.000     -0.000     +0.011
      +0.000     +0.000     -0.021
      +0.000     +0.000     -0.050
      +0.000     -0.000     +0.001
      +0.000     +0.001     -0.555
      +0.190     +0.465     +0.301
      -0.190     -0.466     +0.300
      +0.000     +0.000     -0.011
vibration  2
      -0.000     -0.000     +0.049
      -0.000     -0.000     +0.028
      +0.000     +0.000     -0.176
      +0.000     +0.000     -0.163
      -0.000     -0.000     +0.116
      -0.000     -0.000     +0.187
      -0.000     -0.000     +0.208
      +0.000     +0.000     -0.324
      +0.000     +0.000     -0.325
      -0.000     -0.000     +0.213
      -0.000     -0.000     +0.298
      +0.000     +0.000     -0.239
      +0.000     +0.001     -0.392
      +0.211     -0.028     -0.294
      -0.211     +0.029     -0.294
      -0.000     -0.000     +0.169
vibration  3
      -0.000     -0.000     +0.065
      -0.000     -0.000     +0.060
      -0.000     -0.000     +0.061
      +0.000     +0.000     -0.031
      +0.000     +0.000     -0.059
      -0.000     -0.000     +0.031
      -0.000     -0.000     +0.009
      -0.000     -0.000     +0.116
      +0.000     +0.000     -0.081
      +0.000     +0.000     -0.144
      -0.000     -0.000     +0.012
      +0.000     +0.000     -0.035
      +0.000     +0.000     -0.057
      +0.062     -0.034     -0.070
      -0.062     +0.035     -0.069
      +0.000     +0.001     -0.958
vibration  4
      -0.000     -0.000     +0.184
      -0.000     -0.000     +0.131
      -0.000     -0.000     +0.139
      +0.000     +0.000     -0.092
      +0.000     +0.000     -0.145
      -0.000     -0.000     +0.113
      +0.000     +0.000     -0.189
      -0.000     -0.000     +0.129
      +0.000     +0.000     -0.263
      +0.000     +0.001     -0.370
      -0.000     -0.000     +0.119
      +0.000     +0.000     -0.066
      +0.000     +0.000     -0.206
      +0.185     -0.033     -0.120
      -0.185     +0.033     -0.120
      -0.000     -0.001     +0.685
vibration  5
      +0.059     +0.044     +0.000
      +0.048     +0.057     +0.000
      +0.002     -0.019     -0.000
      +0.019     -0.029     -0.000
      +0.046     -0.024     -0.000
      +0.056     +0.044     +0.000
      -0.072     +0.236     +0.000
      -0.035     -0.022     -0.000
      +0.013     -0.042     -0.000
      +0.071     -0.056     -0.000
      +0.099     +0.049     +0.000
      -0.091     -0.297     -0.000
      +0.155     -0.524     -0.001
      -0.284     -0.343     -0.002
      -0.284     -0.344     +0.001
      -0.249     +0.200     +0.000
vibration  6
      -0.058     +0.178     +0.000
      -0.026     +0.166     +0.000
      -0.100     +0.058     +0.000
      -0.018     -0.131     -0.000
      +0.052     -0.124     -0.000
      +0.089     +0.039     +0.000
      +0.197     -0.118     -0.000
      -0.286     +0.037     +0.000
      -0.063     -0.227     -0.000
      +0.103     -0.192     -0.000
      +0.275     +0.062     +0.000
      -0.190     +0.018     +0.000
      -0.019     -0.155     -0.000
      -0.332     -0.022     -0.004
      -0.332     -0.022     +0.004
      +0.524     -0.049     -0.000
vibration  7
      -0.000     -0.000     +0.232
      -0.000     -0.000     +0.135
      +0.000     +0.000     -0.180
      -0.000     -0.000     +0.118
      -0.000     -0.000     +0.037
      +0.000     +0.000     -0.179
      +0.000     +0.000     -0.035
      +0.000     +0.001     -0.582
      -0.000     -0.000     +0.185
      +0.000     +0.000     -0.010
      +0.000     +0.001     -0.597
      -0.000     +0.000     -0.004
      +0.000     +0.000     -0.105
      +0.191     -0.084     -0.096
      -0.191     +0.084     -0.096
      +0.000     +0.000     -0.036
vibration  8
      +0.170     +0.035     +0.000
      -0.190     -0.004     -0.000
      -0.200     +0.118     +0.000
      -0.191     +0.104     +0.000
      +0.139     +0.146     +0.000
      +0.167     +0.148     +0.000
      -0.135     -0.240     -0.000
      -0.093     +0.129     +0.000
      -0.270     -0.071     -0.000
      +0.258     -0.014     +0.000
      +0.057     +0.136     +0.000
      +0.230     -0.166     -0.000
      +0.377     -0.310     -0.000
      +0.080     -0.205     -0.003
      +0.080     -0.205     +0.002
      +0.153     -0.187     -0.000
vibration  9
      +0.000     +0.000     -0.115
      -0.000     -0.000     +0.244
      -0.000     -0.000     +0.102
      +0.000     +0.000     -0.204
      -0.000     -0.000     +0.229
      +0.000     +0.000     -0.129
      +0.000     +0.000     -0.079
      -0.000     +0.000     -0.055
      +0.000     +0.001     -0.642
      -0.000     -0.001     +0.451
      +0.000     +0.000     -0.324
      +0.000     -0.000     +0.011
      +0.000     -0.000     +0.108
      -0.152     +0.047     +0.070
      +0.152     -0.047     +0.070
      +0.000     +0.000     -0.052
vibration  10
      -0.098     -0.024     -0.000
      -0.124     -0.050     -0.000
      +0.088     +0.210     +0.000
      +0.288     +0.065     +0.000
      +0.303     +0.046     +0.000
      +0.134     -0.197     -0.000
      -0.243     -0.098     -0.000
      +0.171     +0.214     +0.000
      +0.208     -0.121     -0.000
      +0.178     +0.219     +0.000
      +0.149     -0.192     -0.000
      -0.242     +0.070     +0.000
      -0.196     +0.019     +0.000
      -0.268     +0.055     -0.005
      -0.268     +0.055     +0.005
      -0.279     -0.113     -0.000
vibration  11
      -0.096     -0.107     -0.000
      -0.092     +0.142     +0.000
      -0.122     +0.314     +0.000
      +0.041     +0.000     +0.000
      -0.019     -0.051     -0.000
      -0.084     -0.308     -0.000
      +0.121     +0.108     +0.000
      -0.291     +0.300     +0.000
      -0.056     -0.203     -0.000
      -0.189     +0.168     +0.000
      -0.146     -0.321     -0.000
      +0.196     -0.125     -0.000
      +0.084     -0.013     -0.000
      +0.274     -0.097     +0.007
      +0.274     -0.097     -0.007
      +0.221     +0.134     +0.000
vibration  12
      +0.000     +0.000     -0.153
      -0.000     -0.000     +0.139
      +0.000     +0.000     -0.025
      -0.000     -0.000     +0.129
      +0.000     +0.000     -0.052
      -0.000     -0.000     +0.098
      +0.000     +0.000     -0.009
      +0.000     +0.001     -0.691
      +0.000     +0.000     -0.231
      +0.000     +0.001     -0.514
      -0.000     -0.000     +0.097
      +0.000     +0.000     -0.030
      -0.000     -0.000     +0.100
      -0.207     +0.089     +0.071
      +0.207     -0.089     +0.070
      +0.000     +0.000     -0.035
vibration  13
      +0.000     +0.000     -0.048
      -0.000     -0.000     +0.168
      +0.000     +0.000     -0.071
      -0.000     +0.000     -0.024
      +0.000     +0.000     -0.112
      +0.000     +0.000     -0.017
      +0.000     +0.000     -0.027
      +0.000     -0.000     +0.066
      -0.000     -0.001     +0.593
      -0.000     -0.001     +0.571
      -0.000     -0.001     +0.514
      -0.000     +0.000     -0.009
      -0.000     +0.000     +0.008
      -0.036     +0.015     +0.010
      +0.036     -0.015     +0.010
      -0.000     +0.000     -0.012
vibration  14
      +0.033     -0.169     -0.000
      +0.016     -0.129     -0.000
      -0.118     -0.079     -0.000
      -0.305     +0.123     +0.000
      +0.252     +0.165     +0.000
      +0.096     -0.145     -0.000
      +0.199     +0.135     +0.000
      +0.121     -0.048     -0.000
      -0.423     -0.133     -0.000
      +0.373     +0.001     -0.000
      -0.196     -0.178     -0.000
      -0.183     +0.046     +0.000
      -0.340     +0.194     +0.000
      -0.046     +0.085     +0.004
      -0.046     +0.085     -0.004
      -0.094     +0.086     +0.000
vibration  15
      -0.000     -0.000     +0.036
      +0.000     +0.000     -0.079
      -0.000     -0.000     +0.127
      +0.000     -0.000     +0.039
      +0.000     +0.000     -0.048
      +0.000     +0.000     -0.098
      -0.000     -0.000     +0.015
      +0.000     +0.001     -0.613
      +0.000     +0.000     -0.350
      -0.000     -0.001     +0.395
      -0.000     -0.001     +0.503
      -0.000     -0.000     +0.025
      +0.000     +0.000     -0.068
      +0.136     -0.065     -0.045
      -0.136     +0.065     -0.045
      +0.000     +0.000     -0.025
vibration  16
      -0.033     -0.085     -0.000
      -0.017     +0.041     +0.000
      -0.001     +0.019     +0.000
      +0.057     -0.105     -0.000
      +0.044     +0.053     +0.000
      -0.001     +0.148     +0.000
      -0.009     +0.004     +0.000
      -0.167     -0.002     +0.000
      +0.007     -0.230     -0.000
      +0.109     -0.018     -0.000
      -0.100     +0.147     +0.000
      -0.053     -0.114     -0.000
      -0.556     +0.383     +0.000
      +0.402     +0.074     +0.053
      +0.402     +0.074     -0.053
      +0.104     +0.026     +0.000
vibration  17
      -0.000     -0.000     +0.015
      -0.000     +0.000     -0.049
      -0.000     -0.000     +0.102
      +0.000     +0.000     -0.078
      +0.000     +0.000     -0.063
      -0.000     -0.000     +0.108
      -0.000     -0.000     +0.009
      +0.000     +0.001     -0.477
      -0.000     -0.001     +0.397
      -0.000     -0.001     +0.362
      +0.000     +0.001     -0.616
      -0.000     +0.000     -0.035
      -0.000     -0.000     +0.085
      -0.146     +0.082     +0.049
      +0.146     -0.082     +0.049
      +0.000     +0.000     -0.004
vibration  18
      +0.031     -0.034     -0.000
      +0.026     -0.011     -0.000
      +0.092     +0.152     +0.000
      -0.128     +0.074     +0.000
      -0.123     -0.150     -0.000
      +0.116     -0.004     -0.000
      -0.021     -0.006     -0.000
      +0.457     +0.205     +0.000
      -0.086     +0.210     +0.001
      +0.038     -0.391     -0.001
      +0.501     +0.033     +0.000
      -0.059     -0.046     -0.000
      -0.287     +0.179     +0.000
      +0.161     +0.050     +0.029
      +0.161     +0.050     -0.029
      -0.072     -0.017     -0.000
vibration  19
      +0.000     -0.000     +0.021
      +0.000     -0.000     +0.004
      +0.000     +0.000     -0.068
      -0.000     -0.000     +0.124
      -0.000     +0.000     -0.113
      +0.000     -0.000     +0.054
      -0.000     -0.000     -0.001
      +0.000     -0.000     +0.330
      +0.000     +0.001     -0.634
      -0.000     -0.001     +0.568
      +0.000     +0.000     -0.282
      -0.000     +0.000     -0.033
      -0.000     -0.000     +0.074
      -0.123     +0.072     +0.041
      +0.123     -0.072     +0.041
      -0.000     -0.000     +0.010
vibration  20
      +0.042     +0.016     +0.000
      +0.055     -0.182     -0.000
      -0.099     +0.158     +0.000
      +0.063     +0.014     +0.000
      +0.052     -0.125     -0.000
      -0.133     +0.127     +0.000
      +0.075     -0.000     +0.000
      -0.118     +0.165     +0.000
      -0.056     -0.246     -0.000
      +0.200     -0.318     -0.000
      -0.246     +0.121     +0.000
      +0.004     +0.032     +0.000
      +0.078     -0.041     -0.000
      -0.070     +0.000     -0.009
      -0.070     +0.000     +0.009
      -0.709     -0.152     -0.000
vibration  21
      +0.000     +0.000     -0.143
      -0.000     -0.000     +0.030
      -0.000     +0.000     -0.006
      -0.000     -0.000     +0.012
      +0.000     +0.000     -0.035
      -0.000     -0.000     +0.076
      +0.000     +0.000     -0.004
      +0.000     +0.000     -0.015
      +0.000     +0.000     -0.030
      -0.000     -0.000     +0.123
      +0.000     +0.000     -0.319
      -0.000     -0.000     +0.146
      +0.000     +0.000     -0.314
      +0.495     -0.306     -0.168
      -0.495     +0.307     -0.167
      -0.000     -0.000     -0.003
vibration  22
      +0.008     +0.095     +0.000
      +0.021     -0.023     -0.000
      -0.122     -0.076     -0.000
      +0.056     +0.144     +0.000
      +0.046     -0.062     -0.000
      -0.020     -0.051     -0.000
      +0.006     -0.011     -0.000
      -0.443     -0.116     -0.000
      +0.282     +0.644     +0.001
      +0.038     -0.054     -0.000
      +0.221     -0.025     +0.000
      -0.017     -0.069     -0.000
      -0.237     +0.153     +0.000
      +0.207     +0.048     +0.044
      +0.207     +0.049     -0.044
      -0.024     -0.018     -0.000
vibration  23
      +0.084     -0.046     -0.000
      -0.037     -0.046     -0.000
      -0.045     +0.019     +0.000
      +0.034     -0.040     -0.000
      -0.103     +0.060     +0.000
      +0.102     +0.007     +0.000
      +0.058     -0.002     +0.000
      -0.315     -0.011     -0.000
      +0.023     -0.067     -0.000
      -0.447     +0.517     +0.001
      +0.424     +0.039     +0.000
      -0.039     +0.012     +0.000
      -0.044     +0.014     +0.000
      -0.035     +0.019     +0.003
      -0.035     +0.019     -0.003
      -0.431     -0.093     -0.000
vibration  24
      -0.259     +0.134     +0.000
      -0.017     -0.004     -0.000
      +0.049     -0.066     -0.000
      -0.043     +0.003     +0.000
      +0.073     +0.039     +0.000
      -0.012     -0.002     -0.000
      +0.055     -0.015     -0.000
      +0.309     -0.038     -0.000
      -0.150     -0.240     -0.000
      +0.006     +0.138     +0.000
      +0.528     +0.072     +0.000
      +0.098     -0.066     -0.000
      +0.031     +0.006     +0.000
      +0.150     -0.011     +0.030
      +0.151     -0.011     -0.030
      -0.580     -0.132     -0.000
vibration  25
      +0.097     +0.116     +0.000
      +0.164     -0.015     -0.000
      -0.056     +0.000     -0.000
      -0.019     +0.051     +0.000
      +0.030     -0.044     -0.000
      -0.085     -0.051     -0.000
      -0.071     -0.026     -0.000
      +0.212     +0.036     +0.000
      -0.307     -0.577     -0.001
      -0.332     +0.435     +0.001
      +0.088     -0.035     -0.000
      -0.040     -0.030     -0.000
      -0.145     +0.082     +0.000
      +0.131     +0.059     +0.034
      +0.131     +0.059     -0.034
      +0.263     +0.029     +0.000
vibration  26
      +0.017     +0.011     +0.000
      -0.215     -0.147     -0.000
      -0.080     -0.037     -0.000
      +0.099     +0.023     +0.000
      +0.012     -0.056     -0.000
      -0.032     +0.067     +0.000
      +0.057     +0.081     +0.000
      +0.677     +0.028     +0.000
      +0.094     -0.013     -0.000
      -0.138     +0.151     +0.000
      +0.239     +0.104     +0.000
      +0.016     -0.009     -0.000
      -0.045     +0.044     +0.000
      -0.045     -0.010     +0.008
      -0.045     -0.010     -0.008
      +0.526     +0.177     +0.000
vibration  27
      -0.082     -0.112     -0.000
      +0.082     -0.072     -0.000
      -0.002     +0.022     +0.000
      +0.007     +0.043     +0.000
      +0.010     +0.024     +0.000
      -0.042     +0.041     +0.000
      -0.041     +0.025     +0.000
      -0.433     -0.026     -0.000
      -0.089     -0.165     -0.000
      +0.128     -0.126     -0.000
      +0.664     +0.127     +0.000
      +0.029     +0.045     +0.000
      +0.132     -0.062     -0.000
      -0.102     -0.077     -0.058
      -0.102     -0.077     +0.058
      +0.416     +0.107     +0.000
vibration  28
      +0.002     -0.011     -0.000
      -0.011     +0.009     +0.000
      -0.017     -0.004     -0.000
      +0.007     -0.006     -0.000
      +0.004     +0.003     +0.000
      -0.010     +0.005     +0.000
      +0.006     +0.000     +0.000
      +0.083     +0.006     +0.000
      +0.025     +0.029     +0.000
      +0.011     -0.003     -0.000
      +0.047     +0.015     +0.000
      -0.111     +0.061     +0.000
      +0.374     -0.394     -0.001
      +0.503     -0.171     -0.237
      +0.503     -0.171     +0.236
      -0.014     -0.002     -0.000
vibration  29
      +0.081     +0.066     +0.000
      -0.105     -0.001     -0.000
      +0.053     -0.058     -0.000
      +0.088     +0.098     +0.000
      -0.119     +0.084     +0.000
      -0.013     -0.076     -0.000
      +0.024     +0.003     +0.000
      -0.198     -0.104     -0.000
      -0.201     -0.566     -0.001
      +0.322     -0.523     -0.001
      +0.098     -0.080     -0.000
      -0.033     -0.032     -0.000
      +0.034     -0.084     -0.000
      +0.085     +0.179     +0.124
      +0.085     +0.179     -0.123
      -0.048     -0.007     -0.000
vibration  30
      -0.028     -0.015     -0.000
      +0.018     -0.039     -0.000
      +0.002     +0.028     +0.000
      -0.025     -0.039     -0.000
      +0.019     -0.001     +0.000
      +0.005     +0.015     +0.000
      -0.006     +0.009     +0.000
      -0.022     +0.028     +0.000
      +0.050     +0.133     +0.000
      -0.040     +0.083     +0.000
      -0.013     +0.017     +0.000
      -0.027     -0.040     -0.000
      +0.313     -0.339     -0.000
      +0.078     +0.494     +0.345
      +0.079     +0.495     -0.344
      +0.094     +0.027     +0.000
vibration  31
      -0.000     -0.000     +0.019
      -0.000     +0.000     -0.003
      +0.000     -0.000     +0.000
      +0.000     +0.000     +0.000
      -0.000     -0.000     -0.000
      +0.000     +0.000     -0.003
      +0.000     -0.000     +0.001
      -0.000     -0.000     +0.000
      -0.000     -0.000     -0.001
      +0.000     -0.000     +0.002
      -0.000     -0.000     +0.009
      -0.000     -0.000     +0.054
      +0.000     +0.001     -0.721
      -0.436     -0.213     -0.056
      +0.436     +0.213     -0.055
      +0.000     +0.000     -0.002
vibration  32
      +0.093     -0.070     -0.000
      +0.065     +0.128     +0.000
      -0.145     -0.008     -0.000
      +0.041     -0.102     -0.000
      -0.001     +0.123     +0.000
      -0.139     -0.048     -0.000
      -0.003     -0.032     -0.000
      +0.559     +0.080     +0.000
      +0.195     +0.195     +0.000
      +0.280     -0.226     -0.000
      +0.525     +0.018     +0.000
      -0.003     +0.005     +0.000
      -0.017     +0.019     +0.000
      -0.102     +0.077     +0.065
      -0.102     +0.078     -0.064
      -0.221     -0.072     -0.000
vibration  33
      -0.087     -0.273     -0.000
      +0.023     +0.265     +0.000
      -0.140     -0.149     -0.000
      +0.123     +0.283     +0.000
      +0.004     -0.195     -0.000
      +0.105     +0.117     +0.000
      +0.011     -0.035     -0.000
      +0.287     -0.109     -0.000
      -0.190     -0.411     -0.001
      -0.222     +0.078     +0.000
      -0.188     +0.093     +0.000
      +0.008     +0.020     +0.000
      +0.187     -0.150     -0.000
      -0.097     +0.161     +0.115
      -0.096     +0.161     -0.115
      -0.294     -0.081     -0.000
vibration  34
      +0.198     -0.077     -0.000
      -0.227     +0.157     +0.000
      +0.276     -0.021     +0.000
      -0.131     +0.034     +0.000
      +0.210     -0.153     -0.000
      -0.301     +0.033     +0.000
      +0.029     -0.015     -0.000
      -0.397     -0.104     -0.000
      -0.123     +0.100     +0.000
      -0.141     +0.335     +0.000
      +0.467     +0.127     +0.000
      -0.023     +0.007     +0.000
      +0.006     -0.023     -0.000
      -0.034     +0.061     +0.042
      -0.034     +0.061     -0.042
      -0.217     -0.052     -0.000
vibration  35
      -0.000     -0.000     -0.000
      +0.000     +0.000     +0.000
      -0.000     -0.000     -0.000
      +0.000     +0.000     +0.000
      +0.001     -0.000     -0.000
      -0.001     +0.001     +0.000
      -0.000     +0.000     +0.000
      +0.000     +0.002     +0.000
      -0.001     +0.001     -0.000
      +0.000     -0.000     +0.000
      +0.003     -0.013     -0.000
      +0.029     -0.046     -0.000
      -0.180     -0.206     -0.000
      -0.078     +0.377     -0.559
      -0.078     +0.375     +0.560
      -0.000     +0.000     +0.000
vibration  36
      +0.000     +0.000     -0.000
      +0.000     +0.000     -0.000
      -0.000     +0.000     -0.000
      -0.000     +0.000     -0.000
      -0.000     -0.000     +0.000
      +0.000     -0.000     +0.000
      +0.000     -0.000     +0.000
      +0.000     -0.000     +0.000
      +0.000     -0.000     -0.000
      +0.000     +0.000     -0.000
      +0.000     +0.000     -0.002
      +0.000     +0.000     -0.092
      +0.000     +0.000     -0.027
      +0.085     -0.415     +0.562
      -0.085     +0.413     +0.563
      +0.000     -0.000     -0.000
vibration  37
      -0.000     +0.001     +0.000
      +0.001     +0.000     +0.000
      +0.000     -0.002     -0.000
      -0.001     +0.000     +0.000
      +0.000     +0.001     +0.000
      +0.000     -0.003     -0.000
      -0.001     +0.001     +0.000
      -0.003     +0.025     +0.000
      +0.007     -0.003     -0.000
      -0.007     -0.005     -0.000
      -0.004     +0.029     +0.000
      +0.051     +0.072     +0.000
      -0.665     -0.697     -0.001
      +0.031     -0.089     +0.151
      +0.031     -0.088     -0.152
      -0.002     -0.001     -0.000
vibration  38
      +0.001     +0.001     +0.000
      -0.004     -0.000     -0.000
      +0.009     -0.074     -0.000
      -0.027     +0.014     +0.000
      +0.012     +0.010     +0.000
      +0.002     -0.023     -0.000
      +0.000     +0.000     +0.000
      -0.099     +0.856     +0.001
      +0.340     -0.156     -0.000
      -0.152     -0.114     -0.000
      -0.030     +0.268     +0.000
      -0.002     -0.003     -0.000
      +0.022     +0.023     +0.000
      -0.001     +0.004     -0.006
      -0.001     +0.004     +0.006
      +0.005     +0.002     +0.000
vibration  39
      -0.003     -0.000     -0.000
      -0.002     -0.001     -0.000
      +0.004     -0.030     -0.000
      -0.001     +0.002     +0.000
      -0.023     -0.020     -0.000
      -0.007     +0.074     +0.000
      +0.000     +0.000     +0.000
      -0.039     +0.339     +0.000
      +0.016     -0.010     -0.000
      +0.289     +0.220     +0.000
      +0.095     -0.857     -0.001
      +0.001     +0.002     +0.000
      -0.010     -0.012     -0.000
      +0.004     -0.007     +0.010
      +0.004     -0.007     -0.010
      +0.002     +0.002     +0.000
vibration  40
      +0.001     +0.001     +0.000
      -0.002     +0.000     +0.000
      +0.002     -0.028     -0.000
      +0.056     -0.022     -0.000
      -0.040     -0.026     -0.000
      +0.005     -0.030     -0.000
      +0.000     +0.000     +0.000
      -0.033     +0.309     +0.000
      -0.629     +0.279     +0.000
      +0.447     +0.327     +0.001
      -0.040     +0.338     +0.000
      -0.000     -0.001     -0.000
      +0.004     +0.005     +0.000
      -0.001     +0.002     -0.003
      -0.001     +0.002     +0.003
      +0.001     +0.001     +0.000
vibration  41
      -0.001     -0.000     -0.000
      -0.001     -0.000     -0.000
      -0.000     -0.018     -0.000
      +0.050     -0.025     -0.000
      +0.051     +0.040     +0.000
      -0.005     +0.022     +0.000
      +0.000     +0.000     +0.000
      -0.017     +0.183     +0.000
      -0.561     +0.255     +0.000
      -0.577     -0.432     -0.001
      +0.031     -0.240     -0.000
      +0.000     +0.000     +0.000
      +0.001     -0.000     -0.000
      +0.001     -0.002     +0.003
      +0.001     -0.002     -0.003
      +0.000     +0.001     +0.000
vibration  42
      +0.000     +0.001     +0.000
      +0.002     -0.001     -0.000
      +0.000     +0.001     +0.000
      -0.000     -0.000     -0.000
      +0.000     +0.000     +0.000
      +0.000     -0.000     -0.000
      +0.010     -0.062     -0.000
      -0.001     -0.001     -0.000
      +0.001     -0.000     +0.000
      -0.000     -0.000     -0.000
      -0.000     +0.001     +0.000
      +0.000     +0.000     +0.000
      -0.001     -0.000     -0.000
      -0.000     -0.000     +0.000
      -0.000     -0.000     -0.000
      -0.185     +0.981     +0.001
