[Molden Format]
[FR-COORD] # Coordinates in bohr
  C    -2.032739    +1.369544    +0.390267 
  C    +0.422934    +1.712689    +0.408991 
  H    -3.310995    +2.945351    +0.388952 
  H    +1.131973    +3.613374    +0.451737 
  C    +2.282998    -0.387933    +0.422406 
  O    -3.114446    -1.008407    +0.421958 
  C    +3.223317    -1.418956    -1.634980 
  H    +2.887316    -1.046672    +2.249673 
  H    +4.581028    -2.923660    -1.546240 
  H    +2.658942    -0.810570    -3.485956 
  H    -4.914831    -0.958981    +0.166311 
[FREQ] # Frequencies in cm^-1
 -107.0247
  105.4990
  217.5854
  339.0511
  594.8993
  639.1346
  835.7388
  858.5978
  985.6324
 1113.7486
 1122.4346
 1135.7814
 1163.4362
 1233.7992
 1337.9149
 1400.5277
 1465.4698
 1570.9196
 1616.4010
 1847.6471
 1916.5942
 3303.8149
 3320.8838
 3327.2675
 3357.7986
 3392.2295
 3921.7977
[FR-NORM-COORD] # Displacements in bohr
vibration  1
      -0.021     +0.021     -0.013
      -0.013     -0.038     -0.086
      +0.004     +0.040     -0.061
      +0.052     -0.061     -0.221
      -0.105     -0.125     -0.033
      -0.049     +0.034     +0.119
      +0.189     +0.098     -0.009
      -0.474     -0.415     -0.017
      +0.098     +0.018     +0.021
      +0.533     +0.368     -0.026
      -0.044     +0.033     +0.086
vibration  2
      +0.003     +0.002     -0.020
      +0.003     -0.001     +0.007
      +0.002     +0.002     -0.016
      +0.005     -0.002     +0.062
      +0.003     -0.000     -0.004
      -0.003     +0.002     +0.084
      -0.015     +0.002     -0.013
      +0.017     -0.001     -0.009
      -0.016     +0.001     -0.028
      -0.027     +0.009     -0.008
      +0.143     -0.084     -0.979
vibration  3
      +0.026     +0.057     -0.033
      +0.010     +0.126     +0.007
      -0.104     -0.052     -0.086
      +0.069     +0.100     -0.032
      -0.189     -0.051     +0.034
      +0.281     -0.065     -0.021
      -0.173     -0.004     +0.022
      -0.489     -0.325     +0.033
      -0.414     -0.222     -0.010
      +0.073     +0.258     +0.032
      +0.267     -0.276     +0.046
vibration  4
      -0.052     +0.041     +0.212
      -0.053     +0.071     -0.069
      -0.096     +0.005     +0.623
      -0.056     +0.067     +0.131
      -0.059     +0.055     -0.138
      +0.035     -0.004     -0.072
      +0.106     -0.132     +0.031
      -0.166     +0.116     -0.075
      +0.070     -0.147     +0.344
      +0.321     -0.324     -0.097
      +0.052     -0.056     -0.202
vibration  5
      -0.100     +0.123     -0.061
      -0.090     -0.072     +0.090
      -0.113     +0.109     -0.152
      +0.100     -0.145     +0.187
      -0.087     -0.111     -0.035
      +0.116     +0.056     +0.023
      +0.063     -0.014     -0.029
      +0.309     +0.182     -0.057
      +0.518     +0.399     +0.036
      -0.210     -0.350     -0.056
      +0.103     -0.214     +0.087
vibration  6
      +0.016     +0.018     +0.150
      +0.014     -0.086     -0.210
      +0.048     +0.042     +0.295
      +0.117     -0.118     -0.512
      -0.034     -0.079     +0.114
      +0.035     +0.016     -0.063
      -0.051     +0.081     +0.052
      +0.080     +0.169     +0.161
      +0.218     +0.311     -0.233
      -0.421     +0.109     +0.174
      +0.049     +0.015     -0.158
vibration  7
      +0.149     -0.088     -0.086
      +0.098     -0.001     -0.058
      +0.177     -0.068     +0.325
      +0.149     -0.038     +0.616
      -0.188     +0.020     -0.045
      -0.034     -0.028     +0.034
      -0.047     +0.063     +0.042
      -0.056     +0.225     -0.014
      +0.224     +0.322     +0.238
      -0.065     -0.159     -0.023
      -0.035     +0.238     +0.067
vibration  8
      -0.070     +0.044     -0.087
      -0.044     -0.049     -0.111
      -0.056     +0.058     +0.482
      -0.071     -0.052     +0.672
      +0.096     -0.010     +0.048
      +0.026     +0.026     +0.027
      +0.014     -0.014     +0.012
      -0.041     +0.014     +0.102
      -0.166     -0.188     -0.248
      -0.045     +0.259     +0.117
      +0.012     -0.162     +0.102
vibration  9
      -0.006     +0.074     -0.015
      +0.049     +0.342     -0.013
      -0.256     -0.119     +0.063
      +0.141     +0.312     +0.127
      +0.020     -0.174     +0.053
      -0.098     -0.144     +0.007
      +0.074     -0.092     -0.029
      +0.043     -0.033     +0.098
      +0.412     +0.184     -0.480
      -0.303     +0.063     +0.129
      -0.103     +0.099     -0.004
vibration  10
      -0.003     +0.070     -0.036
      +0.027     -0.017     +0.020
      +0.011     +0.083     +0.198
      +0.164     -0.064     -0.109
      +0.005     +0.012     -0.002
      -0.023     -0.055     +0.003
      +0.080     +0.100     +0.001
      -0.243     -0.250     -0.015
      -0.308     -0.245     +0.094
      -0.538     -0.551     -0.023
      -0.028     -0.062     +0.005
vibration  11
      -0.018     +0.186     -0.005
      +0.071     -0.047     -0.003
      +0.017     +0.218     +0.041
      +0.449     -0.180     -0.066
      -0.014     +0.002     -0.001
      -0.057     -0.144     -0.001
      -0.051     +0.024     +0.002
      +0.408     +0.308     -0.032
      -0.178     -0.078     +0.214
      +0.443     +0.234     -0.074
      -0.072     -0.185     +0.011
vibration  12
      -0.000     -0.012     -0.128
      -0.007     +0.007     +0.088
      +0.005     -0.006     +0.768
      -0.055     +0.038     -0.513
      +0.026     +0.007     +0.011
      +0.003     +0.012     +0.008
      -0.046     -0.028     -0.005
      +0.000     -0.127     -0.029
      +0.181     +0.179     +0.062
      +0.152     +0.054     -0.037
      +0.003     -0.019     +0.008
vibration  13
      +0.011     -0.072     -0.029
      -0.026     +0.040     +0.033
      -0.042     -0.117     +0.172
      -0.085     +0.063     -0.167
      -0.097     -0.088     -0.002
      +0.018     +0.044     +0.003
      +0.092     +0.045     +0.000
      +0.495     +0.482     +0.010
      -0.425     -0.428     -0.113
      -0.028     +0.063     +0.039
      +0.025     +0.127     -0.010
vibration  14
      +0.022     +0.031     -0.015
      +0.009     -0.062     +0.084
      +0.123     +0.109     -0.022
      +0.120     -0.100     -0.144
      -0.058     +0.100     -0.094
      -0.005     -0.028     +0.002
      +0.063     -0.087     +0.045
      -0.425     +0.393     +0.132
      +0.097     -0.074     -0.512
      -0.255     +0.336     +0.266
      -0.007     -0.010     -0.000
vibration  15
      +0.017     -0.047     +0.012
      +0.063     +0.041     -0.000
      +0.239     +0.137     -0.007
      -0.084     +0.099     -0.010
      -0.027     -0.012     -0.007
      -0.050     +0.054     -0.011
      +0.006     +0.003     +0.008
      +0.041     +0.015     -0.019
      +0.013     +0.009     -0.009
      -0.040     -0.003     +0.019
      -0.066     -0.938     +0.058
vibration  16
      -0.049     -0.074     -0.000
      +0.028     +0.022     +0.002
      -0.452     -0.407     +0.009
      +0.727     -0.245     -0.010
      +0.016     +0.031     -0.017
      -0.006     +0.066     -0.002
      -0.006     -0.001     +0.016
      -0.023     -0.036     -0.026
      -0.009     -0.002     +0.009
      -0.017     +0.045     +0.034
      -0.002     -0.139     +0.010
vibration  17
      +0.005     -0.009     +0.000
      +0.003     -0.000     +0.017
      -0.038     -0.046     -0.003
      +0.036     -0.010     -0.009
      +0.033     -0.037     +0.086
      -0.003     +0.011     -0.001
      -0.015     +0.018     -0.116
      -0.485     +0.540     +0.469
      -0.012     +0.008     +0.002
      +0.242     -0.271     -0.295
      -0.003     -0.061     +0.005
vibration  18
      +0.029     +0.080     -0.000
      +0.102     -0.064     +0.012
      -0.560     -0.404     -0.011
      -0.478     +0.164     -0.020
      +0.015     -0.037     -0.055
      -0.019     +0.007     -0.001
      -0.007     +0.009     +0.004
      -0.104     +0.140     +0.039
      -0.014     +0.038     +0.325
      -0.187     +0.196     +0.133
      -0.020     -0.100     +0.007
vibration  19
      -0.029     -0.046     -0.002
      -0.053     +0.050     +0.010
      +0.281     +0.214     -0.012
      +0.191     -0.042     -0.005
      +0.071     -0.073     -0.056
      +0.012     -0.001     +0.001
      -0.002     +0.001     -0.034
      -0.151     +0.166     +0.098
      -0.032     +0.034     +0.667
      -0.335     +0.382     +0.210
      +0.013     +0.067     -0.004
vibration  20
      +0.088     +0.032     +0.004
      -0.040     -0.035     -0.024
      -0.082     -0.130     +0.038
      +0.037     -0.076     +0.013
      -0.168     +0.193     +0.266
      -0.014     -0.003     -0.002
      +0.141     -0.157     -0.285
      +0.247     -0.287     +0.015
      +0.148     -0.170     +0.438
      -0.358     +0.412     -0.003
      -0.015     -0.094     +0.004
vibration  21
      -0.460     -0.128     -0.008
      +0.438     -0.019     +0.002
      +0.136     +0.476     +0.012
      -0.161     +0.280     -0.003
      -0.089     +0.062     +0.058
      +0.059     +0.007     +0.005
      +0.030     -0.027     -0.061
      +0.014     +0.013     +0.028
      +0.064     -0.006     +0.045
      -0.077     +0.032     -0.025
      +0.060     +0.432     -0.029
vibration  22
      +0.000     -0.001     +0.000
      -0.001     -0.002     -0.000
      -0.006     +0.008     +0.001
      +0.012     +0.027     +0.003
      +0.021     -0.022     +0.063
      +0.000     +0.000     -0.000
      -0.018     +0.020     +0.019
      -0.248     +0.272     -0.758
      +0.302     -0.335     +0.026
      -0.081     +0.087     -0.253
      +0.001     -0.000     +0.000
vibration  23
      -0.007     +0.007     +0.000
      -0.005     -0.013     -0.000
      +0.080     -0.095     +0.001
      +0.064     +0.161     +0.004
      +0.007     -0.008     +0.045
      +0.000     +0.000     -0.000
      +0.020     -0.022     -0.055
      -0.141     +0.154     -0.437
      -0.368     +0.407     -0.032
      +0.183     -0.197     +0.583
      -0.001     +0.000     -0.000
vibration  24
      +0.043     -0.049     +0.000
      +0.016     +0.046     +0.001
      -0.492     +0.594     -0.001
      -0.210     -0.558     -0.011
      +0.002     -0.002     +0.010
      -0.001     +0.000     -0.000
      +0.004     -0.004     -0.012
      -0.032     +0.037     -0.100
      -0.073     +0.081     -0.006
      +0.038     -0.041     +0.121
      +0.012     -0.004     +0.002
vibration  25
      -0.043     +0.039     -0.000
      +0.032     +0.062     +0.001
      +0.396     -0.470     +0.001
      -0.282     -0.727     -0.015
      +0.002     -0.002     +0.005
      +0.001     -0.001     +0.000
      +0.000     -0.000     -0.004
      -0.016     +0.020     -0.047
      -0.008     +0.010     +0.000
      +0.011     -0.012     +0.037
      -0.011     +0.005     -0.002
vibration  26
      +0.001     -0.000     -0.000
      -0.000     -0.001     +0.000
      -0.004     +0.004     -0.000
      +0.005     +0.010     -0.001
      -0.004     +0.005     -0.012
      -0.000     -0.000     +0.000
      -0.054     +0.060     -0.055
      +0.040     -0.044     +0.129
      +0.464     -0.515     +0.022
      +0.188     -0.203     +0.643
      -0.000     +0.000     -0.000
vibration  27
      -0.002     +0.004     -0.000
      +0.001     +0.000     -0.000
      +0.013     -0.007     +0.001
      -0.001     -0.000     +0.001
      -0.000     +0.000     -0.000
      -0.062     -0.002     -0.008
      +0.000     -0.000     +0.000
      +0.001     -0.001     +0.001
      +0.000     -0.000     -0.000
      -0.000     +0.000     +0.000
      +0.988     -0.008     +0.137
