[Molden Format]
[FR-COORD] # Coordinates in bohr
  C    -2.343171    +1.045984    +0.000003 
  C    +0.132575    +1.374073    -0.000008 
  H    -3.618541    +2.612057    -0.000002 
  H    +0.818850    +3.280774    -0.000019 
  C    +2.027668    -0.637022    -0.000010 
  O    -3.676505    -1.182936    +0.000022 
  C    +4.493755    -0.247992    -0.000015 
  H    +1.359710    -2.558596    -0.000012 
  H    +5.814354    -1.784792    -0.000020 
  H    +5.280197    +1.623114    -0.000015 
  H    -2.634082    -2.675985    +0.000072 
[FREQ] # Frequencies in cm^-1
  102.0021
  231.5243
  280.1892
  443.0110
  499.7739
  752.3905
  761.7621
  926.7332
  976.7909
 1096.1521
 1111.2061
 1143.8226
 1158.5171
 1257.8451
 1364.8840
 1462.8211
 1498.8184
 1550.5830
 1627.1613
 1810.9290
 1875.0348
 3301.7150
 3321.2595
 3360.9414
 3398.5633
 3412.2994
 3923.2756
[FR-NORM-COORD] # Displacements in bohr
vibration  1
      +0.000     -0.000     -0.010
      +0.000     -0.000     +0.093
      +0.000     +0.000     -0.055
      +0.000     -0.000     +0.075
      +0.000     -0.000     +0.212
      -0.000     +0.000     -0.083
      +0.000     +0.000     -0.165
      +0.000     -0.000     +0.671
      +0.000     +0.000     -0.034
      -0.000     +0.000     -0.617
      -0.000     -0.000     -0.268
vibration  2
      +0.020     -0.052     +0.000
      +0.043     -0.213     -0.000
      +0.191     +0.089     +0.000
      +0.055     -0.213     -0.000
      +0.154     -0.114     -0.000
      -0.266     +0.119     +0.000
      +0.113     +0.191     +0.000
      +0.315     -0.171     -0.000
      +0.325     +0.374     +0.000
      -0.143     +0.299     +0.000
      -0.449     -0.015     -0.000
vibration  3
      +0.000     -0.000     -0.059
      +0.000     -0.000     +0.105
      +0.000     +0.000     -0.251
      +0.000     -0.000     +0.125
      +0.000     -0.000     +0.024
      -0.000     +0.000     -0.047
      +0.000     +0.000     -0.047
      +0.000     -0.000     -0.135
      +0.000     +0.000     -0.228
      -0.000     +0.000     +0.057
      -0.000     +0.000     +0.910
vibration  4
      -0.051     -0.088     -0.000
      -0.040     +0.089     +0.000
      -0.063     -0.094     -0.000
      -0.256     +0.171     +0.000
      +0.125     +0.215     -0.000
      -0.165     -0.042     +0.000
      +0.194     -0.121     -0.000
      +0.029     +0.241     -0.000
      -0.117     -0.394     -0.000
      +0.580     -0.285     +0.000
      -0.264     -0.116     +0.000
vibration  5
      -0.000     -0.000     -0.189
      +0.000     -0.000     +0.139
      -0.000     -0.000     -0.485
      +0.000     -0.000     +0.074
      -0.000     -0.000     +0.038
      +0.000     +0.000     +0.118
      -0.000     +0.000     -0.030
      +0.000     -0.000     -0.281
      -0.000     +0.000     -0.426
      -0.000     +0.000     +0.303
      +0.000     -0.000     -0.580
vibration  6
      +0.271     -0.190     +0.000
      +0.202     +0.102     -0.000
      +0.292     -0.178     -0.000
      +0.085     +0.140     -0.000
      -0.118     +0.093     +0.000
      -0.086     -0.020     -0.000
      -0.166     +0.031     -0.000
      -0.341     +0.179     -0.000
      -0.156     +0.048     -0.000
      -0.216     +0.051     +0.000
      -0.544     -0.341     -0.000
vibration  7
      +0.000     -0.000     -0.116
      +0.000     +0.000     +0.093
      +0.000     -0.000     +0.040
      +0.000     +0.000     +0.592
      -0.000     +0.000     -0.152
      -0.000     -0.000     +0.049
      -0.000     +0.000     +0.015
      -0.000     +0.000     +0.176
      -0.000     +0.000     +0.654
      -0.000     +0.000     -0.375
      -0.000     -0.000     +0.025
vibration  8
      -0.000     +0.000     +0.090
      -0.000     +0.000     +0.133
      -0.000     -0.000     -0.571
      -0.000     -0.000     -0.712
      +0.000     -0.000     -0.103
      +0.000     +0.000     -0.026
      +0.000     -0.000     -0.004
      -0.000     -0.000     +0.091
      +0.000     +0.000     +0.338
      -0.000     +0.000     -0.056
      -0.000     -0.000     -0.064
vibration  9
      -0.027     +0.090     -0.000
      +0.044     +0.260     -0.000
      -0.227     -0.065     +0.000
      +0.134     +0.238     +0.000
      +0.054     -0.151     +0.000
      -0.096     -0.120     +0.000
      +0.076     -0.083     -0.000
      -0.188     -0.064     -0.000
      +0.563     +0.340     -0.000
      -0.475     +0.159     +0.000
      -0.027     -0.077     -0.000
vibration  10
      +0.000     +0.000     -0.030
      +0.000     +0.000     +0.005
      +0.000     +0.000     +0.187
      +0.000     -0.000     -0.034
      -0.000     +0.000     +0.011
      -0.000     -0.000     +0.002
      -0.000     +0.000     -0.135
      +0.000     -0.000     +0.357
      -0.000     -0.000     +0.385
      +0.000     -0.000     +0.817
      +0.000     +0.000     +0.038
vibration  11
      +0.025     +0.184     -0.000
      +0.118     -0.027     +0.000
      +0.059     +0.215     +0.000
      +0.555     -0.177     -0.000
      -0.016     +0.015     -0.000
      -0.125     -0.178     +0.000
      -0.051     +0.082     +0.000
      +0.179     -0.045     -0.000
      -0.403     -0.224     -0.000
      +0.359     -0.099     -0.000
      +0.325     +0.117     +0.000
vibration  12
      +0.000     +0.000     +0.076
      +0.000     -0.000     -0.068
      -0.000     -0.000     -0.424
      +0.000     +0.000     +0.297
      +0.000     -0.000     +0.112
      -0.000     -0.000     -0.004
      -0.000     +0.000     -0.089
      -0.000     +0.000     -0.641
      -0.000     -0.000     +0.536
      +0.000     -0.000     -0.016
      +0.000     -0.000     -0.059
vibration  13
      +0.000     -0.000     -0.098
      -0.000     +0.000     +0.079
      +0.000     +0.000     +0.623
      -0.000     -0.000     -0.497
      +0.000     +0.000     +0.061
      +0.000     +0.000     +0.003
      +0.000     -0.000     -0.025
      -0.000     +0.000     -0.486
      +0.000     +0.000     +0.269
      -0.000     +0.000     -0.188
      +0.000     +0.000     +0.031
vibration  14
      +0.011     +0.021     +0.000
      +0.025     -0.113     -0.000
      +0.318     +0.270     -0.000
      -0.159     -0.048     +0.000
      -0.011     +0.141     -0.000
      -0.040     -0.036     -0.000
      +0.016     -0.089     -0.000
      -0.345     +0.260     +0.000
      +0.321     +0.187     -0.000
      -0.404     +0.097     +0.000
      +0.424     +0.276     +0.000
vibration  15
      -0.049     +0.083     -0.000
      +0.007     -0.087     +0.000
      -0.309     -0.123     +0.000
      +0.482     -0.261     -0.000
      -0.023     +0.080     +0.000
      +0.051     -0.011     +0.000
      +0.040     -0.022     -0.000
      -0.291     +0.182     -0.000
      +0.163     +0.085     +0.000
      -0.055     +0.028     -0.000
      -0.508     -0.383     -0.000
vibration  16
      -0.031     -0.110     +0.000
      +0.031     +0.027     -0.000
      -0.339     -0.371     +0.000
      +0.555     -0.163     -0.000
      +0.003     +0.073     +0.000
      -0.029     +0.059     -0.000
      -0.027     -0.049     -0.000
      +0.360     -0.057     -0.000
      +0.050     +0.026     +0.000
      -0.209     +0.029     +0.000
      +0.336     +0.302     +0.000
vibration  17
      +0.013     +0.061     -0.000
      -0.028     -0.001     +0.000
      +0.171     +0.196     -0.000
      -0.099     +0.030     +0.000
      +0.046     +0.077     +0.000
      +0.019     -0.033     +0.000
      -0.062     -0.080     +0.000
      +0.740     -0.164     -0.000
      -0.042     -0.045     +0.000
      -0.417     +0.060     +0.000
      -0.286     -0.245     +0.000
vibration  18
      +0.023     +0.079     -0.000
      +0.091     -0.069     -0.000
      -0.562     -0.399     +0.000
      -0.482     +0.144     +0.000
      +0.080     +0.000     -0.000
      -0.016     +0.003     -0.000
      -0.031     +0.005     +0.000
      -0.103     +0.076     +0.000
      -0.294     -0.203     +0.000
      -0.294     +0.100     +0.000
      +0.049     +0.049     +0.000
vibration  19
      -0.065     -0.055     +0.000
      -0.029     +0.041     -0.000
      +0.248     +0.209     -0.000
      +0.291     -0.069     -0.000
      +0.103     -0.031     -0.000
      +0.016     +0.008     +0.000
      +0.032     +0.029     -0.000
      -0.305     +0.115     +0.000
      -0.493     -0.406     +0.000
      -0.466     +0.224     +0.000
      -0.023     -0.014     -0.000
vibration  20
      +0.274     +0.068     -0.000
      -0.219     -0.011     +0.000
      -0.113     -0.310     +0.000
      +0.034     -0.138     +0.000
      -0.259     -0.003     +0.000
      -0.040     -0.020     -0.000
      +0.292     +0.026     -0.000
      +0.149     -0.183     -0.000
      -0.191     -0.433     +0.000
      -0.404     +0.357     +0.000
      +0.112     +0.070     +0.000
vibration  21
      -0.289     -0.068     +0.000
      +0.358     -0.009     -0.000
      +0.066     +0.293     -0.000
      -0.307     +0.268     -0.000
      -0.308     +0.008     +0.000
      +0.033     +0.014     +0.000
      +0.219     +0.033     -0.000
      +0.346     -0.259     -0.000
      -0.083     -0.268     +0.000
      -0.196     +0.244     +0.000
      -0.113     -0.077     -0.000
vibration  22
      +0.001     +0.002     -0.000
      -0.002     -0.007     +0.000
      +0.001     -0.005     +0.000
      +0.031     +0.077     -0.000
      +0.027     +0.074     +0.000
      +0.000     -0.001     +0.000
      +0.018     -0.005     -0.000
      -0.318     -0.882     -0.000
      -0.182     +0.219     +0.000
      -0.060     -0.152     +0.000
      -0.006     +0.003     -0.000
vibration  23
      -0.000     -0.000     -0.000
      -0.001     +0.000     -0.000
      +0.004     -0.003     +0.000
      +0.002     +0.002     -0.000
      -0.018     -0.023     +0.000
      -0.000     +0.000     -0.000
      +0.064     +0.027     -0.000
      +0.099     +0.269     +0.000
      -0.345     +0.418     +0.000
      -0.299     -0.727     -0.000
      +0.002     -0.001     +0.000
vibration  24
      +0.011     -0.017     +0.000
      +0.030     +0.076     -0.000
      -0.166     +0.204     -0.000
      -0.328     -0.898     +0.000
      +0.003     +0.005     -0.000
      -0.001     -0.000     -0.000
      +0.003     -0.005     -0.000
      -0.021     -0.067     -0.000
      -0.044     +0.048     +0.000
      +0.004     +0.012     +0.000
      +0.005     -0.007     +0.000
vibration  25
      -0.003     +0.004     -0.000
      -0.001     -0.002     +0.000
      +0.037     -0.044     +0.000
      +0.010     +0.036     -0.000
      -0.005     -0.013     -0.000
      +0.000     +0.000     +0.000
      +0.026     -0.094     -0.000
      +0.050     +0.130     +0.000
      -0.519     +0.593     +0.000
      +0.238     +0.537     -0.000
      -0.001     +0.001     -0.000
vibration  26
      +0.059     -0.063     +0.000
      -0.015     -0.021     +0.000
      -0.614     +0.737     -0.000
      +0.094     +0.243     -0.000
      -0.002     -0.001     +0.000
      -0.002     +0.002     -0.000
      +0.001     -0.004     -0.000
      +0.006     +0.023     +0.000
      -0.021     +0.025     +0.000
      +0.012     +0.025     -0.000
      +0.025     -0.020     +0.000
vibration  27
      -0.004     +0.002     -0.000
      +0.000     -0.000     +0.000
      +0.018     -0.024     +0.000
      -0.001     +0.000     +0.000
      +0.000     -0.000     -0.000
      -0.033     +0.053     -0.000
      -0.000     +0.000     -0.000
      -0.008     -0.005     -0.000
      -0.000     -0.000     -0.000
      +0.001     +0.001     +0.000
      +0.557     -0.828     +0.000
