[Molden Format]
[FR-COORD] # Coordinates in bohr
  C    -2.344129    +0.703083    +0.000001 
  O    -2.416331    -1.622938    -0.000001 
  H    -4.083509    +1.778810    +0.000001 
  C    -0.028885    +2.144214    +0.000000 
  C    +2.197159    +0.944918    -0.000004 
  H    -0.105684    +4.160340    +0.000009 
  H    +3.955859    +1.943392    +0.000005 
  O    +2.507939    -1.564942    +0.000001 
  H    +0.873318    -2.441848    +0.000012 
[FREQ] # Frequencies in cm^-1
  293.0396
  306.6141
  480.4021
  537.5577
  895.5202
  923.0335
  977.5773
 1028.0817
 1188.1704
 1192.1361
 1198.0301
 1372.8277
 1511.0740
 1541.2650
 1592.7652
 1738.6354
 1846.7376
 3226.6843
 3388.4632
 3426.4537
 3606.8271
[FR-NORM-COORD] # Displacements in bohr
vibration  1
      -0.000     +0.000     +0.229
      -0.000     +0.000     -0.212
      +0.000     +0.000     +0.843
      -0.000     -0.000     -0.064
      +0.000     -0.000     -0.141
      +0.000     -0.000     -0.162
      -0.000     +0.000     -0.326
      +0.000     +0.000     +0.165
      +0.000     -0.000     +0.093
vibration  2
      -0.133     +0.012     -0.000
      -0.439     +0.053     +0.000
      +0.017     +0.268     -0.000
      +0.009     -0.146     +0.000
      +0.072     +0.019     +0.000
      +0.013     -0.140     +0.000
      -0.033     +0.202     +0.000
      +0.440     +0.027     -0.000
      +0.617     -0.227     +0.000
vibration  3
      -0.000     +0.000     -0.056
      +0.000     +0.000     -0.022
      -0.000     -0.000     -0.514
      +0.000     +0.000     +0.228
      -0.000     -0.000     -0.176
      +0.000     +0.000     +0.194
      +0.000     -0.000     -0.676
      -0.000     -0.000     +0.063
      +0.000     +0.000     +0.389
vibration  4
      +0.207     -0.182     +0.000
      -0.290     -0.193     -0.000
      +0.341     +0.039     -0.000
      +0.195     -0.016     +0.000
      +0.271     +0.188     -0.000
      -0.125     -0.031     +0.000
      +0.357     +0.037     -0.000
      -0.228     +0.172     +0.000
      -0.377     +0.412     -0.000
vibration  5
      +0.000     +0.000     +0.049
      -0.000     +0.000     -0.020
      +0.000     +0.000     -0.195
      -0.000     -0.000     +0.064
      -0.000     -0.000     +0.086
      -0.000     +0.000     -0.903
      +0.000     -0.000     -0.309
      +0.000     +0.000     -0.028
      -0.000     -0.000     -0.189
vibration  6
      +0.000     -0.000     +0.006
      -0.000     -0.000     -0.023
      +0.000     -0.000     +0.115
      +0.000     +0.000     -0.025
      -0.000     +0.000     +0.069
      -0.000     +0.000     -0.128
      +0.000     -0.000     +0.017
      -0.000     -0.000     -0.076
      +0.000     -0.000     +0.979
vibration  7
      +0.196     -0.083     -0.000
      -0.115     -0.120     +0.000
      +0.151     -0.153     -0.000
      +0.027     +0.448     +0.000
      -0.195     +0.009     -0.000
      -0.006     +0.456     +0.000
      -0.046     -0.263     -0.000
      +0.068     -0.132     +0.000
      +0.303     -0.499     -0.000
vibration  8
      -0.370     -0.030     +0.000
      +0.025     -0.068     -0.000
      -0.563     -0.333     -0.000
      +0.106     +0.193     +0.000
      +0.219     +0.082     -0.000
      +0.230     +0.220     -0.000
      +0.355     -0.130     +0.000
      +0.018     -0.114     +0.000
      -0.159     +0.209     -0.000
vibration  9
      +0.059     -0.002     -0.000
      +0.009     +0.058     +0.000
      +0.116     +0.093     +0.000
      -0.116     -0.009     +0.000
      +0.085     +0.159     -0.000
      -0.896     -0.035     -0.000
      +0.089     +0.163     +0.000
      +0.024     -0.192     +0.000
      -0.173     +0.139     +0.000
vibration  10
      +0.000     -0.000     +0.195
      -0.000     -0.000     -0.045
      +0.000     -0.000     -0.811
      +0.000     -0.000     -0.049
      -0.000     -0.000     -0.072
      +0.000     -0.000     -0.010
      -0.000     +0.000     +0.533
      -0.000     +0.000     +0.002
      +0.000     -0.000     +0.101
vibration  11
      +0.000     -0.000     +0.086
      +0.000     +0.000     -0.020
      +0.000     +0.000     -0.328
      -0.000     -0.000     -0.135
      +0.000     +0.000     +0.153
      -0.000     -0.000     +0.484
      +0.000     +0.000     -0.775
      +0.000     -0.000     -0.014
      -0.000     +0.000     -0.086
vibration  12
      +0.027     +0.006     -0.000
      -0.011     -0.023     -0.000
      +0.014     -0.032     +0.000
      +0.018     -0.008     -0.000
      -0.037     +0.062     +0.000
      +0.503     +0.010     +0.000
      -0.385     +0.681     -0.000
      +0.010     -0.080     -0.000
      -0.215     +0.272     -0.000
vibration  13
      -0.051     -0.086     -0.000
      +0.028     +0.063     +0.000
      +0.034     +0.066     +0.000
      +0.112     -0.072     -0.000
      -0.035     +0.180     -0.000
      +0.118     -0.077     +0.000
      -0.014     +0.143     -0.000
      -0.085     -0.036     +0.000
      +0.461     -0.816     -0.000
vibration  14
      -0.076     +0.033     +0.000
      +0.036     -0.097     -0.000
      +0.426     +0.886     +0.000
      -0.013     +0.018     -0.000
      -0.010     +0.022     -0.000
      +0.078     +0.028     +0.000
      +0.042     -0.068     +0.000
      +0.005     -0.011     +0.000
      -0.011     +0.017     -0.000
vibration  15
      +0.061     -0.006     -0.000
      -0.008     +0.016     +0.000
      +0.024     -0.100     -0.000
      -0.164     -0.050     -0.000
      +0.001     +0.134     -0.000
      +0.696     -0.020     -0.000
      +0.386     -0.543     +0.000
      +0.018     -0.038     +0.000
      -0.044     +0.080     +0.000
vibration  16
      -0.048     -0.156     -0.000
      +0.010     +0.091     +0.000
      +0.094     +0.070     +0.000
      +0.208     -0.041     -0.000
      -0.230     +0.079     +0.000
      -0.163     -0.077     -0.000
      +0.034     -0.489     -0.000
      +0.065     -0.014     -0.000
      -0.325     +0.681     -0.000
vibration  17
      +0.040     +0.442     +0.000
      -0.013     -0.259     -0.000
      -0.462     -0.385     -0.000
      +0.172     -0.139     -0.000
      -0.157     +0.175     +0.000
      -0.326     -0.191     -0.000
      +0.089     -0.334     -0.000
      +0.016     -0.039     +0.000
      +0.010     -0.076     +0.000
vibration  18
      -0.074     +0.044     +0.000
      +0.000     -0.001     -0.000
      +0.855     -0.507     -0.000
      +0.002     -0.004     -0.000
      +0.000     -0.001     -0.000
      -0.012     +0.058     +0.000
      +0.004     +0.004     +0.000
      -0.000     +0.001     -0.000
      +0.002     -0.007     +0.000
vibration  19
      +0.002     +0.000     +0.000
      +0.000     -0.000     +0.000
      -0.013     +0.006     +0.000
      -0.004     -0.027     -0.000
      +0.074     +0.037     +0.000
      -0.009     +0.337     +0.000
      -0.816     -0.451     -0.000
      -0.006     -0.003     +0.000
      +0.083     +0.042     -0.000
vibration  20
      -0.006     +0.001     +0.000
      -0.000     -0.000     +0.000
      +0.049     -0.024     -0.000
      -0.007     +0.083     +0.000
      +0.031     +0.012     +0.000
      +0.039     -0.936     -0.000
      -0.292     -0.156     -0.000
      -0.002     -0.002     +0.000
      +0.026     +0.008     -0.000
vibration  21
      +0.004     +0.006     -0.000
      +0.000     -0.005     +0.000
      -0.001     -0.006     +0.000
      -0.004     +0.001     -0.000
      -0.006     -0.010     +0.000
      -0.004     -0.005     -0.000
      +0.077     +0.054     +0.000
      -0.052     -0.030     +0.000
      +0.835     +0.539     -0.000
