[Molden Format]
[FR-COORD] # Coordinates in bohr
  C    +1.884001    -0.608842    -0.000000 
  O    +4.160336    -0.319048    -0.000000 
  H    +1.045773    -2.472871    +0.000002 
  C    +0.072328    +1.482421    +0.000000 
  C    -2.388065    +1.094098    +0.000000 
  H    +0.801359    +3.367718    +0.000000 
  H    -3.703444    +2.636681    +0.000000 
  O    -3.391193    -1.295897    -0.000000 
  H    -5.209936    -1.329989    -0.000000 
[FREQ] # Frequencies in cm^-1
  182.2820
  217.9237
  235.6685
  479.2329
  507.3897
  743.9876
  906.3900
 1060.5137
 1162.5438
 1175.7130
 1199.9686
 1334.2463
 1374.0429
 1538.2002
 1590.0864
 1872.5634
 1906.2756
 3236.6500
 3352.4493
 3406.7166
 3930.4860
[FR-NORM-COORD] # Displacements in bohr
vibration  1
      -0.000     +0.000     +0.289
      -0.000     -0.000     -0.228
      +0.000     +0.000     +0.873
      -0.000     +0.000     +0.130
      -0.000     +0.000     -0.049
      -0.000     +0.000     +0.036
      -0.000     -0.000     -0.229
      +0.000     -0.000     -0.084
      +0.000     -0.000     -0.150
vibration  2
      -0.000     +0.000     +0.019
      -0.000     -0.000     +0.012
      -0.000     +0.000     +0.096
      -0.000     +0.000     -0.029
      -0.000     +0.000     +0.029
      -0.000     +0.000     -0.079
      -0.000     -0.000     +0.081
      +0.000     -0.000     -0.094
      +0.000     -0.000     +0.983
vibration  3
      -0.203     +0.092     -0.000
      -0.171     -0.217     +0.000
      -0.421     +0.198     -0.000
      -0.037     +0.249     -0.000
      -0.006     +0.080     +0.000
      -0.047     +0.249     +0.000
      -0.217     -0.104     +0.000
      +0.374     -0.095     +0.000
      +0.381     -0.414     -0.000
vibration  4
      +0.000     +0.000     +0.040
      +0.000     -0.000     +0.023
      +0.000     +0.000     +0.488
      -0.000     +0.000     -0.228
      -0.000     -0.000     +0.208
      -0.000     +0.000     -0.239
      -0.000     -0.000     +0.666
      -0.000     -0.000     -0.071
      -0.000     +0.000     -0.397
vibration  5
      +0.147     +0.300     -0.000
      +0.232     -0.263     +0.000
      -0.128     +0.411     -0.000
      -0.057     +0.226     +0.000
      -0.064     -0.121     -0.000
      -0.472     +0.393     +0.000
      -0.116     -0.159     -0.000
      -0.194     -0.086     +0.000
      -0.201     +0.076     +0.000
vibration  6
      -0.155     +0.119     +0.000
      -0.194     +0.057     -0.000
      -0.308     +0.183     -0.000
      +0.242     +0.089     -0.000
      +0.328     -0.226     +0.000
      +0.138     +0.123     -0.000
      +0.385     -0.183     -0.000
      -0.122     -0.086     -0.000
      -0.142     +0.557     -0.000
vibration  7
      -0.000     -0.000     -0.008
      -0.000     +0.000     +0.002
      +0.000     +0.000     +0.227
      +0.000     +0.000     -0.060
      +0.000     +0.000     -0.121
      +0.000     -0.000     +0.840
      +0.000     -0.000     +0.464
      -0.000     -0.000     +0.038
      -0.000     +0.000     +0.089
vibration  8
      -0.054     +0.246     +0.000
      -0.021     -0.048     -0.000
      -0.064     +0.242     -0.000
      -0.101     -0.307     -0.000
      +0.020     -0.267     -0.000
      -0.671     -0.109     +0.000
      +0.304     -0.037     +0.000
      +0.139     +0.292     +0.000
      +0.170     -0.070     +0.000
vibration  9
      +0.000     +0.000     +0.163
      +0.000     -0.000     -0.039
      -0.000     -0.000     -0.676
      +0.000     -0.000     +0.000
      -0.000     +0.000     -0.091
      +0.000     -0.000     -0.312
      +0.000     +0.000     +0.640
      -0.000     -0.000     +0.007
      -0.000     -0.000     +0.001
vibration  10
      +0.000     +0.000     +0.143
      -0.000     -0.000     -0.035
      -0.000     -0.000     -0.549
      +0.000     -0.000     -0.153
      -0.000     +0.000     +0.119
      +0.000     -0.000     +0.563
      +0.000     +0.000     -0.567
      -0.000     -0.000     -0.012
      -0.000     -0.000     +0.004
vibration  11
      +0.039     -0.211     +0.000
      +0.002     +0.028     -0.000
      +0.131     -0.265     -0.000
      -0.081     +0.172     -0.000
      +0.023     -0.150     +0.000
      -0.510     +0.339     +0.000
      -0.216     -0.358     -0.000
      +0.047     +0.100     -0.000
      +0.044     +0.493     +0.000
vibration  12
      -0.009     +0.062     -0.000
      +0.012     -0.017     +0.000
      +0.069     +0.032     -0.000
      -0.067     -0.068     +0.000
      -0.020     +0.048     -0.000
      +0.185     -0.171     -0.000
      -0.189     -0.100     +0.000
      +0.054     -0.058     -0.000
      +0.018     +0.929     +0.000
vibration  13
      -0.013     +0.027     -0.000
      +0.012     -0.005     +0.000
      +0.043     +0.004     +0.000
      +0.029     +0.041     +0.000
      -0.052     -0.100     -0.000
      +0.720     -0.225     -0.000
      -0.438     -0.436     -0.000
      -0.007     +0.080     +0.000
      +0.009     -0.156     -0.000
vibration  14
      -0.008     +0.045     +0.000
      -0.038     -0.037     +0.000
      +0.772     -0.296     -0.000
      -0.072     +0.067     -0.000
      +0.005     -0.050     -0.000
      +0.248     -0.055     -0.000
      +0.393     +0.282     +0.000
      +0.005     -0.004     +0.000
      +0.004     -0.016     +0.000
vibration  15
      +0.011     +0.061     -0.000
      -0.068     -0.029     +0.000
      +0.589     -0.181     +0.000
      +0.103     -0.061     -0.000
      +0.037     +0.089     +0.000
      -0.391     +0.133     +0.000
      -0.508     -0.381     -0.000
      -0.024     -0.004     +0.000
      -0.021     -0.112     -0.000
vibration  16
      -0.324     -0.011     +0.000
      +0.246     +0.018     -0.000
      +0.072     -0.195     -0.000
      -0.319     -0.016     -0.000
      +0.408     +0.123     +0.000
      +0.020     -0.214     -0.000
      -0.189     -0.496     -0.000
      -0.061     -0.007     -0.000
      -0.038     -0.418     -0.000
vibration  17
      +0.459     +0.013     -0.000
      -0.268     -0.037     +0.000
      -0.307     +0.367     -0.000
      -0.309     -0.006     +0.000
      +0.263     +0.070     +0.000
      +0.282     -0.260     -0.000
      -0.087     -0.298     -0.000
      -0.033     +0.007     +0.000
      -0.012     -0.269     -0.000
vibration  18
      -0.035     -0.078     +0.000
      +0.002     +0.001     +0.000
      +0.397     +0.913     -0.000
      +0.000     +0.003     +0.000
      -0.000     -0.002     +0.000
      -0.011     -0.019     +0.000
      +0.006     -0.002     +0.000
      -0.001     +0.001     -0.000
      +0.002     +0.002     -0.000
vibration  19
      +0.000     -0.000     +0.000
      -0.000     +0.000     -0.000
      +0.000     +0.002     -0.000
      -0.002     -0.019     -0.000
      -0.059     +0.060     +0.000
      +0.087     +0.238     +0.000
      +0.634     -0.725     -0.000
      +0.001     -0.001     -0.000
      -0.014     +0.005     +0.000
vibration  20
      -0.003     -0.001     +0.000
      +0.001     +0.000     +0.000
      +0.006     +0.022     -0.000
      -0.036     -0.078     -0.000
      +0.021     -0.015     -0.000
      +0.350     +0.899     +0.000
      -0.166     +0.183     +0.000
      -0.000     +0.001     -0.000
      +0.005     -0.002     -0.000
vibration  21
      +0.000     -0.001     +0.000
      -0.000     +0.000     +0.000
      +0.000     +0.002     -0.000
      -0.001     -0.000     +0.000
      +0.002     -0.003     -0.000
      +0.001     -0.000     +0.000
      -0.012     +0.005     +0.000
      +0.063     +0.004     -0.000
      -0.997     -0.036     +0.000
