[Molden Format]
[FR-COORD] # Coordinates in bohr
  C    +2.119951    +0.165855    +0.799491 
  O    +3.480492    -0.906813    -0.685936 
  H    +2.447012    -0.006500    +2.819238 
  C    -0.046207    +1.831824    +0.105282 
  C    -2.344817    +0.974988    -0.239910 
  H    +0.337333    +3.807344    -0.144962 
  H    -3.869708    +2.187836    -0.788528 
  O    -3.009972    -1.565904    -0.038312 
  H    -3.154521    -2.139922    +1.692188 
[FREQ] # Frequencies in cm^-1
 -376.8732
 -169.3568
  204.8692
  331.1243
  634.4568
  744.3301
  837.4764
  995.7582
 1067.2939
 1136.3692
 1183.9975
 1317.2872
 1406.2184
 1554.8330
 1561.8448
 1867.3968
 1912.0187
 3154.4081
 3352.8103
 3384.2440
 3847.2485
[FR-NORM-COORD] # Displacements in bohr
vibration  1
      -0.023     -0.022     -0.015
      +0.007     +0.007     -0.005
      -0.078     -0.058     -0.011
      -0.006     +0.003     -0.018
      -0.016     +0.020     +0.027
      +0.011     -0.000     -0.025
      -0.030     +0.043     +0.104
      +0.092     -0.024     +0.004
      -0.943     +0.273     +0.020
vibration  2
      +0.105     +0.186     +0.012
      -0.182     -0.163     +0.000
      +0.521     +0.690     -0.012
      -0.017     +0.048     +0.075
      +0.017     -0.019     +0.017
      -0.128     +0.093     +0.240
      -0.018     -0.020     +0.105
      +0.086     -0.042     -0.092
      -0.098     -0.056     -0.112
vibration  3
      -0.201     -0.097     +0.013
      -0.184     -0.040     -0.008
      -0.446     -0.449     +0.023
      -0.008     +0.148     -0.007
      +0.035     +0.060     -0.037
      +0.059     +0.126     -0.023
      -0.067     -0.105     -0.105
      +0.307     -0.013     +0.035
      +0.583     -0.040     +0.049
vibration  4
      -0.044     +0.021     -0.138
      +0.130     -0.104     +0.115
      -0.244     +0.136     -0.087
      -0.042     +0.042     -0.165
      -0.112     +0.069     +0.222
      -0.078     +0.069     -0.004
      -0.251     +0.107     +0.693
      +0.039     +0.005     -0.083
      +0.248     -0.304     -0.166
vibration  5
      +0.027     -0.068     -0.093
      +0.157     -0.080     +0.002
      +0.200     +0.154     -0.097
      -0.179     -0.018     +0.140
      -0.167     +0.075     -0.183
      -0.154     +0.049     +0.672
      -0.215     +0.030     -0.157
      +0.082     +0.050     +0.063
      +0.177     +0.371     +0.177
vibration  6
      +0.006     -0.073     +0.117
      -0.044     +0.074     -0.022
      +0.421     +0.386     +0.085
      -0.036     -0.249     -0.054
      -0.141     +0.096     +0.049
      +0.306     -0.367     -0.478
      -0.076     +0.119     -0.075
      +0.121     +0.092     -0.027
      +0.160     -0.069     -0.083
vibration  7
      +0.088     -0.011     +0.012
      +0.053     -0.063     -0.020
      +0.056     -0.214     -0.004
      -0.081     +0.133     +0.092
      -0.074     +0.027     +0.065
      -0.026     +0.019     -0.731
      -0.018     -0.166     -0.522
      +0.001     -0.013     -0.021
      -0.082     -0.202     -0.094
vibration  8
      -0.225     +0.089     -0.249
      +0.035     -0.007     +0.057
      -0.151     +0.375     -0.228
      +0.004     -0.128     +0.176
      +0.112     -0.109     +0.079
      +0.068     -0.194     -0.166
      +0.359     -0.088     -0.532
      +0.037     +0.126     +0.005
      -0.114     -0.210     -0.133
vibration  9
      +0.116     +0.065     +0.057
      -0.023     -0.026     -0.014
      -0.242     -0.502     +0.065
      -0.084     -0.077     -0.047
      -0.003     -0.183     -0.010
      -0.704     +0.038     -0.008
      +0.018     -0.060     +0.187
      +0.063     +0.211     +0.006
      -0.061     -0.101     -0.128
vibration  10
      +0.001     -0.051     +0.035
      +0.003     +0.011     -0.011
      +0.109     +0.095     +0.030
      +0.016     +0.026     -0.123
      -0.023     +0.005     +0.095
      -0.076     +0.134     +0.582
      +0.073     -0.211     -0.645
      +0.004     +0.023     +0.015
      -0.130     -0.300     -0.114
vibration  11
      +0.093     +0.191     -0.045
      -0.039     -0.028     +0.013
      -0.518     -0.507     -0.008
      +0.050     -0.155     +0.006
      -0.081     +0.132     +0.050
      +0.041     -0.126     +0.199
      +0.141     +0.203     -0.421
      +0.006     -0.085     -0.014
      +0.112     +0.214     +0.106
vibration  12
      -0.028     -0.055     +0.011
      +0.007     +0.007     -0.002
      +0.115     +0.129     +0.001
      -0.016     +0.001     -0.024
      +0.038     -0.012     +0.103
      -0.497     +0.079     -0.117
      +0.208     +0.074     -0.166
      -0.005     -0.020     -0.061
      +0.219     +0.712     +0.224
vibration  13
      -0.022     -0.031     +0.002
      +0.006     +0.003     -0.001
      +0.064     +0.075     -0.008
      +0.004     -0.021     +0.009
      +0.023     +0.095     -0.052
      -0.585     +0.079     -0.099
      +0.332     +0.533     +0.023
      +0.007     -0.050     +0.044
      -0.082     -0.449     -0.105
vibration  14
      -0.022     +0.028     -0.022
      -0.007     +0.005     +0.042
      +0.543     -0.446     -0.157
      -0.063     +0.041     -0.042
      -0.026     -0.076     +0.015
      +0.345     -0.024     +0.085
      +0.377     +0.438     -0.001
      +0.010     -0.001     -0.002
      +0.027     +0.041     +0.015
vibration  15
      +0.042     -0.020     +0.054
      +0.019     -0.018     -0.061
      -0.577     +0.414     +0.207
      -0.079     +0.044     -0.006
      -0.015     -0.075     +0.014
      +0.334     -0.026     +0.059
      +0.377     +0.411     -0.024
      +0.009     +0.004     -0.001
      +0.033     +0.029     +0.009
vibration  16
      -0.016     +0.073     +0.082
      +0.047     -0.049     -0.050
      +0.064     -0.228     +0.040
      -0.484     -0.108     -0.093
      +0.452     +0.244     +0.047
      +0.252     -0.298     +0.125
      +0.012     -0.454     +0.112
      -0.029     -0.040     +0.006
      -0.048     -0.105     -0.012
vibration  17
      +0.467     -0.353     -0.404
      -0.287     +0.224     +0.309
      -0.329     +0.218     -0.232
      -0.155     +0.015     +0.003
      +0.091     +0.031     +0.006
      +0.091     -0.044     -0.005
      +0.083     -0.026     -0.045
      -0.005     +0.000     +0.006
      -0.006     -0.052     -0.017
vibration  18
      -0.013     +0.007     -0.082
      -0.001     +0.001     +0.000
      +0.168     -0.092     +0.978
      +0.001     +0.001     -0.000
      +0.000     +0.001     -0.000
      -0.009     -0.018     -0.001
      -0.000     -0.004     -0.001
      -0.000     -0.000     -0.000
      -0.003     -0.002     +0.003
vibration  19
      +0.000     -0.000     +0.001
      +0.000     +0.000     -0.000
      -0.002     +0.006     -0.014
      +0.015     +0.070     -0.009
      +0.032     -0.025     +0.012
      -0.158     -0.829     +0.106
      -0.395     +0.306     -0.142
      -0.000     -0.001     -0.000
      +0.000     +0.000     +0.005
vibration  20
      -0.001     +0.001     -0.001
      +0.000     -0.000     -0.000
      +0.002     -0.004     +0.011
      -0.017     -0.045     +0.004
      +0.064     -0.039     +0.021
      +0.102     +0.503     -0.064
      -0.650     +0.497     -0.232
      -0.000     +0.000     -0.001
      +0.003     -0.001     +0.007
vibration  21
      +0.000     -0.000     +0.000
      -0.000     +0.000     +0.000
      -0.001     +0.001     -0.003
      -0.000     -0.000     +0.000
      -0.001     -0.001     -0.002
      -0.001     +0.000     +0.002
      +0.006     -0.007     -0.000
      +0.006     +0.023     -0.058
      -0.083     -0.335     +0.936
