[Molden Format]
[FR-COORD] # Coordinates in bohr
  C    -2.135865    +0.107295    +0.779388 
  O    -3.641166    -0.812891    -0.677363 
  H    -2.324436    -0.225145    +2.796235 
  C    +0.033490    +1.756788    +0.060769 
  C    +2.369030    +0.945521    -0.199132 
  H    -0.368192    +3.716513    -0.258247 
  H    +3.889540    +2.192106    -0.660139 
  O    +3.243839    -1.480241    +0.064978 
  H    +1.933950    -2.743285    +0.208569 
[FREQ] # Frequencies in cm^-1
 -202.3679
  204.0284
  301.2527
  447.1930
  661.5620
  703.5020
  825.8418
 1003.0835
 1093.0755
 1153.4737
 1169.9764
 1346.4741
 1462.4852
 1552.1756
 1560.2800
 1850.5898
 1898.0132
 3163.1967
 3368.8835
 3414.5432
 3888.7699
[FR-NORM-COORD] # Displacements in bohr
vibration  1
      -0.103     +0.187     +0.041
      +0.175     -0.168     -0.024
      -0.503     +0.695     +0.086
      +0.018     +0.053     +0.081
      -0.018     -0.020     +0.001
      +0.123     +0.107     +0.262
      +0.011     -0.034     +0.058
      -0.068     -0.045     -0.086
      -0.101     -0.017     -0.127
vibration  2
      -0.209     +0.085     +0.020
      -0.153     +0.059     -0.023
      -0.505     +0.424     +0.048
      -0.010     -0.159     +0.043
      +0.019     -0.074     -0.008
      +0.053     -0.136     +0.065
      -0.107     +0.066     -0.055
      +0.309     +0.035     -0.040
      +0.466     -0.092     +0.287
vibration  3
      -0.009     +0.036     -0.067
      -0.092     -0.052     +0.074
      +0.061     +0.182     -0.036
      +0.022     -0.006     -0.113
      +0.062     +0.027     +0.124
      +0.059     +0.020     -0.014
      +0.115     +0.080     +0.437
      +0.022     -0.006     -0.004
      -0.017     -0.061     -0.829
vibration  4
      -0.015     -0.009     +0.091
      +0.069     +0.061     -0.041
      -0.093     -0.048     +0.069
      -0.037     -0.037     +0.047
      -0.058     -0.029     -0.119
      -0.082     -0.071     -0.110
      -0.124     -0.015     -0.300
      +0.029     +0.012     +0.104
      +0.057     -0.132     -0.883
vibration  5
      +0.053     +0.083     +0.073
      +0.164     +0.075     +0.004
      +0.228     -0.103     +0.057
      -0.191     +0.009     -0.142
      -0.193     -0.090     +0.219
      -0.134     -0.064     -0.638
      -0.234     -0.030     +0.254
      +0.075     -0.048     -0.103
      +0.300     -0.259     +0.110
vibration  6
      +0.008     +0.072     -0.114
      -0.050     -0.071     +0.025
      +0.365     -0.325     -0.141
      -0.027     +0.231     +0.066
      -0.125     -0.097     -0.067
      +0.276     +0.353     +0.437
      -0.075     -0.139     -0.015
      +0.102     -0.057     +0.048
      +0.321     -0.298     -0.051
vibration  7
      +0.082     -0.006     -0.013
      +0.047     +0.058     +0.018
      +0.016     +0.212     +0.020
      -0.061     -0.120     -0.101
      -0.066     -0.024     -0.069
      -0.004     +0.044     +0.843
      -0.031     +0.103     +0.407
      -0.016     +0.034     +0.034
      +0.045     -0.022     +0.090
vibration  8
      -0.223     -0.103     +0.271
      +0.034     +0.011     -0.067
      -0.104     -0.464     +0.217
      -0.022     +0.167     -0.222
      +0.094     +0.101     -0.060
      +0.038     +0.277     +0.310
      +0.317     +0.009     +0.389
      +0.073     -0.130     +0.012
      -0.149     +0.098     +0.083
vibration  9
      +0.114     -0.086     -0.064
      -0.023     +0.028     +0.015
      -0.260     +0.553     +0.005
      -0.085     +0.088     +0.030
      -0.015     +0.148     +0.007
      -0.678     -0.013     +0.091
      +0.007     +0.038     -0.221
      +0.076     -0.176     +0.013
      -0.085     -0.027     +0.008
vibration  10
      +0.032     -0.072     +0.010
      -0.014     +0.011     -0.001
      -0.197     +0.206     +0.035
      +0.033     +0.066     +0.066
      -0.032     -0.050     -0.116
      -0.103     -0.042     -0.422
      +0.208     -0.018     +0.769
      -0.015     +0.031     +0.003
      +0.174     -0.151     +0.062
vibration  11
      +0.042     -0.164     +0.050
      -0.028     +0.023     -0.016
      -0.393     +0.357     +0.095
      +0.062     +0.101     -0.095
      -0.017     -0.082     +0.107
      +0.193     +0.169     +0.177
      +0.035     -0.350     -0.435
      -0.049     +0.094     -0.018
      +0.348     -0.300     -0.039
vibration  12
      -0.041     +0.073     -0.002
      +0.010     -0.011     +0.000
      +0.144     -0.172     -0.023
      -0.001     -0.029     +0.001
      +0.066     +0.028     -0.002
      -0.577     -0.123     +0.134
      +0.346     -0.324     -0.045
      -0.047     +0.023     -0.003
      +0.405     -0.420     +0.027
vibration  13
      -0.006     -0.014     +0.007
      -0.001     +0.000     -0.005
      +0.044     +0.055     +0.020
      +0.013     -0.051     +0.008
      +0.003     +0.157     -0.019
      +0.488     +0.028     -0.106
      -0.184     +0.403     -0.019
      -0.056     -0.064     +0.009
      +0.445     -0.556     +0.076
vibration  14
      -0.016     -0.029     +0.014
      -0.007     +0.001     -0.035
      +0.504     +0.387     +0.132
      -0.077     -0.041     +0.039
      -0.027     +0.064     -0.007
      +0.361     +0.034     -0.067
      +0.416     -0.488     -0.018
      +0.021     +0.002     -0.002
      -0.069     +0.093     -0.013
vibration  15
      +0.041     +0.020     -0.056
      +0.025     +0.014     +0.064
      -0.661     -0.403     -0.206
      -0.077     -0.036     +0.002
      -0.013     +0.066     -0.009
      +0.323     +0.036     -0.055
      +0.327     -0.345     +0.004
      +0.013     -0.008     -0.000
      -0.021     +0.024     -0.017
vibration  16
      -0.013     -0.057     -0.066
      +0.045     +0.038     +0.039
      +0.056     +0.222     -0.009
      -0.463     +0.091     +0.069
      +0.456     -0.216     -0.041
      +0.238     +0.276     -0.074
      -0.037     +0.511     -0.098
      -0.054     +0.043     +0.001
      +0.141     -0.126     +0.006
vibration  17
      +0.508     +0.307     +0.394
      -0.317     -0.192     -0.303
      -0.333     -0.219     +0.238
      -0.138     -0.019     -0.009
      +0.069     -0.013     -0.007
      +0.112     +0.041     +0.019
      +0.069     +0.025     +0.052
      -0.003     -0.002     -0.002
      +0.020     -0.030     +0.013
vibration  18
      -0.007     -0.013     +0.082
      -0.001     -0.001     -0.000
      +0.100     +0.165     -0.977
      +0.001     -0.000     +0.000
      +0.000     -0.001     +0.000
      -0.007     +0.013     +0.001
      -0.001     +0.003     +0.002
      -0.000     +0.000     -0.000
      +0.002     +0.001     +0.003
vibration  19
      +0.001     +0.001     -0.001
      +0.000     -0.000     +0.000
      -0.000     -0.007     +0.011
      +0.019     -0.078     +0.012
      +0.015     +0.015     -0.005
      -0.187     +0.924     -0.152
      -0.213     -0.174     +0.064
      -0.001     +0.000     +0.000
      +0.007     +0.005     -0.000
vibration  20
      -0.001     -0.000     +0.000
      +0.000     +0.000     +0.000
      -0.000     +0.003     -0.004
      -0.012     +0.025     -0.003
      +0.069     +0.048     -0.019
      +0.060     -0.269     +0.043
      -0.726     -0.582     +0.218
      -0.002     -0.002     +0.000
      +0.029     +0.016     -0.003
vibration  21
      +0.001     +0.000     -0.000
      -0.000     -0.000     -0.000
      -0.001     -0.000     +0.002
      +0.000     +0.001     -0.000
      -0.005     -0.001     +0.001
      -0.002     +0.000     +0.000
      +0.023     +0.021     -0.007
      -0.043     -0.045     +0.005
      +0.702     +0.704     -0.081
