[Molden Format]
[FR-COORD] # Coordinates in bohr
  C    +1.105219    -1.240709    +0.000000 
  C    +0.800355    +1.364619    +0.000005 
  C    -1.589273    +2.420898    -0.000001 
  C    -3.700111    +0.891663    -0.000001 
  C    -3.431561    -1.711096    +0.000001 
  C    -1.035771    -2.751292    -0.000003 
  O    +2.808359    +3.024785    -0.000002 
  H    -1.739755    +4.436662    +0.000001 
  H    -5.544778    +1.727712    +0.000000 
  H    -5.061853    -2.911360    +0.000002 
  H    -0.814987    -4.766398    -0.000003 
  C    +3.731793    -2.385015    +0.000001 
  H    +4.793601    -1.827122    +1.667495 
  H    +3.621579    -4.426426    -0.000013 
  H    +4.793610    -1.827101    -1.667481 
  H    +4.430289    +2.201886    -0.000004 
[FREQ] # Frequencies in cm^-1
  135.7079
  190.6053
  235.3696
  309.8774
  324.8031
  467.8241
  518.1748
  581.1601
  627.0810
  651.6231
  806.3317
  853.8085
  891.4246
  924.2791
 1026.6945
 1101.2302
 1123.0643
 1139.7805
 1178.0783
 1202.2023
 1202.7736
 1266.0697
 1292.0513
 1309.1936
 1360.0814
 1400.4236
 1483.2407
 1579.7525
 1628.5914
 1656.3983
 1670.8152
 1678.9862
 1754.1965
 1789.2246
 3176.7284
 3218.4416
 3275.0024
 3350.8135
 3363.4417
 3382.3415
 3401.7995
 3941.2159
[FR-NORM-COORD] # Displacements in bohr
vibration  1
      +0.000     -0.000     +0.012
      +0.000     +0.000     -0.000
      +0.000     -0.000     -0.031
      +0.000     +0.000     -0.023
      +0.000     +0.000     +0.033
      +0.000     +0.000     +0.043
      -0.000     +0.000     -0.023
      +0.000     -0.000     -0.059
      +0.000     +0.000     -0.047
      +0.000     +0.000     +0.053
      +0.000     +0.000     +0.059
      -0.000     -0.000     -0.039
      -0.119     -0.373     +0.165
      +0.000     +0.000     -0.503
      +0.119     +0.373     +0.165
      +0.000     +0.000     +0.606
vibration  2
      +0.000     +0.000     -0.052
      +0.000     +0.000     -0.035
      -0.000     -0.000     +0.076
      +0.000     -0.000     +0.100
      +0.000     -0.000     -0.039
      +0.000     +0.000     -0.105
      -0.000     +0.000     -0.092
      -0.000     -0.000     +0.140
      +0.000     -0.000     +0.201
      +0.000     -0.000     -0.066
      +0.000     +0.000     -0.164
      -0.000     -0.000     +0.153
      -0.278     -0.241     +0.409
      -0.000     +0.000     -0.184
      +0.278     +0.241     +0.409
      -0.000     +0.000     -0.453
vibration  3
      +0.000     +0.000     -0.020
      +0.000     +0.000     -0.016
      -0.000     -0.000     -0.104
      +0.000     -0.000     -0.049
      +0.000     -0.000     +0.077
      +0.000     +0.000     +0.057
      -0.000     +0.000     +0.147
      -0.000     -0.000     -0.178
      -0.000     -0.000     -0.096
      +0.000     -0.000     +0.158
      +0.000     +0.000     +0.108
      -0.000     -0.000     -0.055
      -0.084     -0.210     +0.065
      -0.000     +0.000     -0.353
      +0.084     +0.210     +0.065
      -0.000     +0.000     -0.800
vibration  4
      +0.000     +0.000     +0.211
      +0.000     +0.000     +0.160
      +0.000     -0.000     +0.154
      +0.000     -0.000     -0.105
      +0.000     -0.000     -0.160
      +0.000     +0.000     +0.122
      -0.000     +0.000     -0.134
      +0.000     -0.000     +0.157
      +0.000     -0.000     -0.299
      +0.000     -0.000     -0.409
      +0.000     +0.000     +0.116
      -0.000     -0.000     -0.076
      +0.142     -0.198     -0.103
      -0.000     -0.000     -0.336
      -0.142     +0.198     -0.103
      -0.000     +0.000     -0.533
vibration  5
      -0.069     -0.028     +0.000
      -0.040     -0.041     +0.000
      -0.003     +0.020     +0.000
      -0.012     +0.017     -0.000
      -0.040     +0.011     -0.000
      -0.048     -0.043     +0.000
      +0.101     -0.232     -0.000
      +0.009     +0.021     +0.000
      -0.009     +0.025     -0.000
      -0.063     +0.041     -0.000
      -0.067     -0.046     +0.000
      +0.060     +0.299     -0.000
      -0.030     +0.469     +0.003
      +0.387     +0.283     -0.000
      -0.030     +0.469     -0.003
      +0.021     -0.377     -0.000
vibration  6
      +0.052     -0.186     -0.000
      +0.016     -0.187     -0.000
      +0.105     -0.053     -0.000
      +0.022     +0.142     +0.000
      -0.050     +0.128     +0.000
      -0.095     -0.052     -0.000
      -0.224     +0.079     +0.000
      +0.340     -0.038     -0.000
      +0.066     +0.237     +0.000
      -0.108     +0.206     +0.000
      -0.278     -0.075     -0.000
      +0.194     +0.015     +0.000
      +0.117     +0.170     -0.003
      +0.459     -0.001     +0.000
      +0.117     +0.170     +0.003
      -0.068     +0.391     -0.000
vibration  7
      +0.000     +0.000     -0.235
      +0.000     -0.000     -0.127
      -0.000     +0.000     +0.194
      -0.000     +0.000     -0.131
      -0.000     -0.000     -0.032
      -0.000     -0.000     +0.181
      +0.000     +0.000     +0.030
      -0.000     -0.000     +0.572
      -0.000     +0.000     -0.219
      -0.000     +0.000     +0.022
      -0.000     -0.000     +0.593
      +0.000     +0.000     +0.002
      -0.185     +0.086     +0.094
      +0.000     -0.000     +0.100
      +0.185     -0.086     +0.094
      +0.000     +0.000     +0.046
vibration  8
      -0.151     -0.036     +0.000
      +0.167     +0.006     -0.000
      +0.183     -0.104     -0.000
      +0.171     -0.101     +0.000
      -0.118     -0.128     -0.000
      -0.138     -0.132     +0.000
      +0.099     +0.217     +0.000
      +0.090     -0.112     -0.000
      +0.240     +0.051     +0.000
      -0.220     +0.010     -0.000
      -0.039     -0.122     +0.000
      -0.224     +0.132     +0.000
      -0.280     +0.261     -0.006
      +0.012     +0.122     -0.000
      -0.280     +0.261     +0.006
      +0.207     +0.420     -0.000
vibration  9
      +0.000     -0.000     +0.105
      +0.000     +0.000     -0.247
      -0.000     -0.000     -0.096
      -0.000     -0.000     +0.195
      -0.000     -0.000     -0.228
      -0.000     +0.000     +0.140
      +0.000     +0.000     +0.078
      -0.000     -0.000     +0.086
      -0.000     +0.000     +0.631
      -0.000     -0.000     -0.449
      -0.000     +0.000     +0.349
      +0.000     -0.000     -0.007
      +0.137     -0.076     -0.071
      +0.000     +0.000     -0.115
      -0.137     +0.076     -0.071
      +0.000     -0.000     +0.042
vibration  10
      +0.096     +0.018     -0.000
      +0.135     +0.045     +0.000
      -0.078     -0.226     +0.000
      -0.286     -0.062     -0.000
      -0.317     -0.041     +0.000
      -0.144     +0.196     -0.000
      +0.239     +0.106     -0.000
      -0.180     -0.228     -0.000
      -0.195     +0.147     -0.000
      -0.197     -0.209     +0.000
      -0.159     +0.190     -0.000
      +0.255     -0.057     +0.000
      +0.230     -0.010     +0.000
      +0.309     -0.061     +0.000
      +0.230     -0.010     -0.000
      +0.194     +0.004     -0.000
vibration  11
      -0.100     -0.105     +0.000
      -0.093     +0.142     +0.000
      -0.118     +0.315     -0.000
      +0.047     +0.003     -0.000
      -0.027     -0.055     +0.000
      -0.096     -0.317     -0.000
      +0.131     +0.123     -0.000
      -0.302     +0.308     +0.000
      -0.049     -0.197     +0.000
      -0.205     +0.177     +0.000
      -0.157     -0.331     -0.000
      +0.212     -0.116     +0.000
      +0.175     -0.050     +0.001
      +0.325     -0.127     -0.000
      +0.175     -0.050     -0.001
      +0.034     -0.084     -0.000
vibration  12
      -0.000     +0.000     -0.161
      -0.000     +0.000     +0.154
      +0.000     +0.000     -0.040
      +0.000     +0.000     +0.134
      -0.000     -0.000     -0.054
      -0.000     -0.000     +0.107
      +0.000     +0.000     -0.013
      +0.000     +0.000     -0.650
      -0.000     -0.000     -0.221
      -0.000     +0.000     -0.549
      +0.000     -0.000     +0.087
      +0.000     -0.000     -0.034
      -0.215     +0.097     +0.075
      +0.000     -0.000     +0.108
      +0.215     -0.097     +0.075
      -0.000     -0.000     +0.026
vibration  13
      -0.000     +0.000     +0.045
      +0.000     +0.000     -0.159
      +0.000     +0.000     +0.062
      +0.000     -0.000     +0.021
      -0.000     -0.000     +0.112
      -0.000     +0.000     +0.025
      -0.000     -0.000     +0.025
      -0.000     +0.000     -0.047
      +0.000     +0.000     -0.553
      -0.000     +0.000     -0.591
      +0.000     +0.000     -0.544
      +0.000     -0.000     +0.004
      +0.017     -0.010     -0.003
      -0.000     +0.000     +0.005
      -0.017     +0.010     -0.003
      -0.000     +0.000     +0.019
vibration  14
      -0.029     +0.173     -0.000
      -0.007     +0.100     +0.000
      +0.105     +0.062     -0.000
      +0.292     -0.100     -0.000
      -0.225     -0.157     -0.000
      -0.107     +0.121     -0.000
      -0.165     -0.125     -0.000
      -0.119     +0.040     +0.000
      +0.401     +0.134     +0.000
      -0.346     +0.008     +0.000
      +0.155     +0.150     +0.000
      +0.169     -0.011     +0.000
      +0.259     -0.223     +0.015
      -0.165     +0.003     +0.000
      +0.259     -0.223     -0.015
      -0.184     -0.145     +0.000
vibration  15
      +0.000     -0.000     -0.028
      -0.000     -0.000     +0.075
      +0.000     -0.000     -0.109
      -0.000     -0.000     -0.061
      +0.000     +0.000     +0.037
      +0.000     +0.000     +0.102
      +0.000     +0.000     -0.013
      -0.000     -0.000     +0.576
      +0.000     -0.000     +0.450
      -0.000     +0.000     -0.294
      -0.000     +0.000     -0.529
      -0.000     -0.000     -0.032
      -0.152     +0.053     +0.051
      +0.000     -0.000     +0.085
      +0.152     -0.053     +0.051
      -0.000     -0.000     -0.014
vibration  16
      +0.038     +0.076     +0.000
      +0.027     -0.047     +0.000
      +0.003     -0.021     -0.000
      -0.079     +0.115     -0.000
      -0.030     -0.059     +0.000
      +0.001     -0.157     -0.000
      +0.009     +0.003     -0.000
      +0.232     -0.001     +0.000
      -0.036     +0.228     +0.000
      -0.074     -0.016     -0.000
      +0.087     -0.158     -0.000
      +0.029     +0.125     -0.000
      +0.200     -0.342     +0.042
      -0.659     +0.157     +0.000
      +0.200     -0.342     -0.042
      +0.027     +0.033     +0.000
vibration  17
      -0.000     -0.000     +0.028
      -0.000     +0.000     -0.053
      +0.000     +0.000     +0.101
      -0.000     -0.000     -0.048
      -0.000     +0.000     -0.087
      +0.000     -0.000     +0.100
      -0.000     -0.000     +0.010
      +0.000     +0.000     -0.507
      -0.000     +0.000     +0.247
      -0.000     +0.000     +0.480
      +0.000     -0.000     -0.565
      +0.000     -0.000     -0.045
      -0.189     +0.057     +0.061
      +0.000     -0.000     +0.104
      +0.189     -0.057     +0.061
      -0.000     -0.000     +0.010
vibration  18
      -0.033     +0.021     +0.000
      -0.034     +0.029     -0.000
      -0.063     -0.179     +0.000
      +0.106     -0.068     +0.000
      +0.113     +0.171     -0.000
      -0.085     -0.025     +0.000
      +0.023     +0.030     -0.000
      -0.440     -0.222     -0.000
      +0.093     -0.137     -0.000
      -0.056     +0.424     +0.000
      -0.441     -0.059     -0.000
      +0.047     +0.054     -0.000
      +0.123     -0.175     +0.026
      -0.283     +0.068     +0.000
      +0.123     -0.175     -0.026
      -0.098     -0.223     +0.000
vibration  19
      -0.000     -0.000     -0.033
      -0.000     +0.000     -0.009
      +0.000     -0.000     +0.085
      -0.000     -0.000     -0.128
      -0.000     +0.000     +0.094
      +0.000     -0.000     -0.031
      -0.000     +0.000     +0.003
      +0.000     -0.000     -0.444
      +0.000     +0.000     +0.665
      -0.000     +0.000     -0.473
      +0.000     -0.000     +0.162
      +0.000     -0.000     +0.043
      +0.167     -0.047     -0.052
      -0.000     +0.000     -0.092
      -0.167     +0.047     -0.052
      -0.000     -0.000     -0.003
vibration  20
      -0.000     -0.000     +0.139
      -0.000     +0.000     -0.030
      +0.000     -0.000     +0.012
      -0.000     -0.000     -0.023
      -0.000     +0.000     +0.047
      +0.000     -0.000     -0.085
      -0.000     +0.000     +0.004
      +0.000     -0.000     -0.016
      +0.000     +0.000     +0.092
      -0.000     +0.000     -0.199
      +0.000     -0.000     +0.393
      +0.000     -0.000     -0.140
      -0.533     +0.151     +0.163
      +0.000     -0.000     +0.283
      +0.533     -0.151     +0.163
      -0.000     -0.000     +0.010
vibration  21
      -0.045     -0.012     -0.000
      -0.105     +0.129     +0.000
      +0.112     -0.112     -0.000
      -0.045     -0.001     +0.000
      -0.084     +0.074     -0.000
      +0.151     -0.085     +0.000
      -0.007     +0.047     -0.000
      +0.225     -0.109     +0.000
      +0.102     +0.324     -0.000
      -0.188     +0.206     +0.000
      +0.402     -0.062     -0.000
      -0.002     -0.040     +0.000
      -0.034     +0.052     -0.007
      +0.164     -0.048     -0.000
      -0.035     +0.052     +0.007
      -0.318     -0.581     +0.000
vibration  22
      +0.001     -0.096     +0.000
      -0.070     -0.019     -0.000
      +0.099     +0.074     -0.000
      -0.025     -0.130     +0.000
      -0.038     +0.034     +0.000
      +0.005     +0.077     -0.000
      +0.020     +0.047     -0.000
      +0.554     +0.113     +0.000
      -0.219     -0.560     -0.000
      +0.006     -0.021     -0.000
      -0.226     +0.055     +0.000
      +0.015     +0.068     -0.000
      +0.065     -0.152     +0.037
      -0.296     +0.081     +0.000
      +0.065     -0.152     -0.037
      -0.099     -0.198     +0.000
vibration  23
      +0.116     -0.069     -0.000
      +0.040     +0.019     +0.000
      -0.017     +0.040     +0.000
      -0.012     -0.062     +0.000
      -0.112     +0.079     +0.000
      +0.100     -0.027     -0.000
      -0.014     -0.055     +0.000
      -0.348     +0.017     -0.000
      -0.080     -0.204     -0.000
      -0.443     +0.522     +0.000
      +0.251     -0.018     +0.000
      -0.046     +0.030     -0.000
      -0.030     -0.013     +0.002
      -0.127     +0.036     +0.000
      -0.030     -0.013     -0.002
      +0.213     +0.414     -0.000
vibration  24
      -0.210     +0.141     -0.000
      +0.094     +0.088     +0.000
      +0.072     -0.055     -0.000
      -0.096     -0.026     +0.000
      +0.074     +0.061     -0.000
      -0.027     -0.053     +0.000
      -0.041     -0.082     +0.000
      +0.375     -0.030     +0.000
      -0.302     -0.477     -0.000
      -0.026     +0.203     -0.000
      +0.232     -0.017     -0.000
      +0.081     -0.055     +0.000
      +0.070     +0.006     -0.012
      +0.145     -0.061     -0.000
      +0.070     +0.006     +0.012
      +0.227     +0.477     -0.000
vibration  25
      -0.028     -0.094     -0.000
      +0.055     +0.161     +0.000
      +0.111     +0.025     -0.000
      -0.072     -0.050     +0.000
      -0.022     +0.052     +0.000
      +0.054     -0.032     -0.000
      -0.052     -0.056     +0.000
      -0.365     -0.007     +0.000
      +0.083     +0.305     -0.000
      +0.363     -0.474     -0.000
      -0.498     -0.098     +0.000
      +0.005     +0.031     +0.000
      +0.034     -0.082     +0.019
      -0.127     +0.036     +0.000
      +0.034     -0.082     -0.019
      +0.068     +0.201     -0.000
vibration  26
      -0.188     -0.088     -0.000
      -0.143     -0.111     +0.000
      -0.004     -0.001     +0.000
      +0.033     -0.024     +0.000
      -0.003     +0.048     +0.000
      +0.059     +0.081     +0.000
      +0.071     +0.022     -0.000
      -0.208     -0.026     -0.000
      +0.192     +0.311     -0.000
      +0.155     -0.153     -0.000
      +0.546     +0.147     +0.000
      +0.078     +0.027     -0.000
      +0.056     -0.140     +0.057
      -0.209     +0.034     +0.000
      +0.056     -0.140     -0.057
      +0.274     +0.425     -0.000
vibration  27
      +0.044     +0.066     +0.000
      -0.132     +0.033     +0.000
      -0.051     -0.025     -0.000
      +0.021     -0.059     +0.000
      -0.004     -0.015     +0.000
      +0.048     -0.010     -0.000
      +0.040     -0.029     -0.000
      +0.507     +0.015     +0.000
      +0.202     +0.328     -0.000
      -0.113     +0.132     +0.000
      -0.504     -0.074     +0.000
      +0.003     -0.037     -0.000
      -0.044     +0.123     -0.027
      -0.035     -0.028     -0.000
      -0.044     +0.123     +0.027
      +0.250     +0.408     -0.000
vibration  28
      -0.000     +0.018     +0.000
      +0.009     -0.013     -0.000
      +0.024     +0.001     +0.000
      -0.004     +0.019     -0.000
      -0.006     -0.007     +0.000
      +0.009     -0.007     -0.000
      -0.005     +0.004     +0.000
      -0.108     -0.010     -0.000
      -0.050     -0.076     +0.000
      -0.007     -0.011     +0.000
      -0.034     -0.016     -0.000
      +0.118     -0.049     +0.000
      -0.452     +0.282     +0.225
      -0.535     +0.005     -0.000
      -0.452     +0.282     -0.225
      -0.039     -0.063     -0.000
vibration  29
      -0.067     -0.082     -0.000
      +0.119     +0.023     +0.000
      -0.050     +0.052     -0.000
      -0.082     -0.079     +0.000
      +0.117     -0.086     -0.000
      -0.004     +0.074     +0.000
      -0.027     +0.003     +0.000
      +0.174     +0.087     +0.000
      +0.169     +0.496     -0.000
      -0.287     +0.478     +0.000
      -0.048     +0.085     +0.000
      +0.031     +0.045     +0.000
      -0.180     -0.222     +0.214
      +0.100     +0.026     +0.000
      -0.180     -0.222     -0.214
      -0.093     -0.139     +0.000
vibration  30
      +0.092     -0.072     -0.000
      +0.014     +0.130     +0.000
      -0.126     -0.045     -0.000
      +0.077     -0.013     +0.000
      -0.023     +0.091     -0.000
      -0.112     -0.041     -0.000
      -0.006     -0.030     +0.000
      +0.445     -0.002     +0.000
      +0.086     -0.034     +0.000
      +0.277     -0.302     -0.000
      +0.464     +0.013     -0.000
      +0.009     +0.038     -0.000
      -0.255     -0.185     +0.232
      +0.104     +0.019     +0.000
      -0.255     -0.185     -0.232
      +0.055     +0.102     -0.000
vibration  31
      -0.000     +0.000     -0.017
      -0.000     -0.000     +0.002
      +0.000     -0.000     +0.001
      +0.000     +0.000     +0.000
      -0.000     -0.000     -0.000
      +0.000     +0.000     +0.001
      +0.000     +0.000     +0.001
      -0.000     -0.000     -0.005
      -0.000     -0.000     +0.001
      -0.000     +0.000     -0.001
      -0.000     -0.000     +0.006
      +0.000     +0.000     -0.053
      +0.126     -0.480     +0.057
      +0.000     -0.000     +0.705
      -0.126     +0.480     +0.057
      +0.000     -0.000     -0.026
vibration  32
      -0.013     +0.059     +0.000
      -0.053     -0.033     -0.000
      +0.039     -0.022     +0.000
      +0.021     +0.068     -0.000
      -0.041     -0.028     +0.000
      +0.074     -0.002     -0.000
      +0.013     +0.003     -0.000
      -0.158     -0.046     -0.000
      -0.110     -0.214     +0.000
      -0.050     -0.035     +0.000
      -0.271     -0.040     +0.000
      +0.006     +0.038     +0.000
      -0.268     -0.367     +0.297
      +0.465     -0.011     -0.000
      -0.268     -0.367     -0.297
      +0.049     +0.068     +0.000
vibration  33
      +0.067     +0.264     +0.000
      +0.057     -0.244     -0.000
      +0.052     +0.154     +0.000
      -0.094     -0.305     +0.000
      -0.045     +0.237     -0.000
      -0.062     -0.128     -0.000
      -0.005     +0.031     -0.000
      -0.104     +0.163     -0.000
      +0.252     +0.442     -0.000
      +0.278     -0.175     -0.000
      +0.155     -0.114     -0.000
      -0.006     -0.015     -0.000
      -0.152     -0.081     +0.110
      +0.293     -0.034     +0.000
      -0.152     -0.081     -0.110
      -0.100     -0.184     +0.000
vibration  34
      -0.208     -0.002     -0.000
      +0.272     -0.089     +0.000
      -0.304     +0.002     -0.000
      +0.146     +0.017     +0.000
      -0.193     +0.109     +0.000
      +0.299     -0.007     -0.000
      -0.028     +0.021     +0.000
      +0.416     +0.070     +0.000
      +0.091     -0.147     +0.000
      +0.079     -0.285     +0.000
      -0.431     -0.092     +0.000
      +0.019     -0.008     -0.000
      +0.089     +0.055     -0.062
      -0.099     +0.004     +0.000
      +0.089     +0.055     +0.062
      -0.153     -0.260     +0.000
vibration  35
      +0.000     -0.000     +0.000
      -0.001     -0.001     +0.000
      +0.000     +0.000     +0.000
      -0.000     -0.000     +0.000
      -0.000     +0.000     -0.000
      +0.001     -0.000     +0.000
      +0.000     +0.000     -0.000
      -0.001     -0.002     +0.000
      +0.001     -0.000     -0.000
      +0.001     +0.001     -0.000
      -0.001     +0.005     +0.000
      -0.053     -0.007     +0.000
      +0.332     +0.186     +0.558
      -0.032     -0.287     -0.000
      +0.332     +0.186     -0.558
      +0.005     +0.002     +0.000
vibration  36
      -0.000     -0.000     +0.000
      -0.000     +0.000     -0.000
      +0.000     -0.000     +0.000
      +0.000     -0.000     +0.000
      +0.000     +0.000     +0.000
      -0.000     +0.000     +0.000
      +0.000     -0.000     -0.000
      +0.000     -0.000     +0.000
      -0.000     +0.000     -0.000
      +0.000     -0.000     -0.000
      +0.000     -0.000     +0.000
      +0.000     -0.000     +0.092
      -0.367     -0.204     -0.565
      +0.000     +0.000     +0.028
      +0.367     +0.204     -0.565
      +0.000     +0.000     +0.005
vibration  37
      +0.001     +0.001     +0.000
      +0.001     +0.000     +0.000
      +0.000     -0.000     -0.000
      -0.000     -0.000     -0.000
      +0.000     +0.000     -0.000
      +0.001     -0.005     -0.000
      -0.000     -0.000     -0.000
      -0.000     +0.002     -0.000
      +0.000     -0.000     +0.000
      -0.005     -0.004     +0.000
      -0.007     +0.048     +0.000
      +0.020     +0.086     +0.000
      -0.094     -0.033     -0.163
      -0.063     -0.955     -0.000
      -0.094     -0.033     +0.163
      -0.003     -0.002     +0.000
vibration  38
      -0.003     -0.000     -0.000
      -0.000     -0.001     +0.000
      -0.001     +0.005     +0.000
      +0.019     -0.008     -0.000
      -0.032     -0.026     +0.000
      -0.007     +0.071     +0.000
      +0.000     +0.000     -0.000
      +0.006     -0.061     -0.000
      -0.226     +0.101     +0.000
      +0.393     +0.293     -0.000
      +0.089     -0.823     -0.000
      +0.001     +0.004     +0.000
      -0.002     -0.002     -0.005
      -0.001     -0.043     -0.000
      -0.002     -0.002     +0.005
      +0.001     -0.001     -0.000
vibration  39
      +0.002     +0.001     +0.000
      +0.000     +0.000     +0.000
      -0.003     +0.015     +0.000
      +0.063     -0.028     -0.000
      -0.026     -0.015     +0.000
      +0.005     -0.040     -0.000
      +0.000     +0.000     -0.000
      +0.019     -0.192     -0.000
      -0.728     +0.328     +0.000
      +0.277     +0.197     -0.000
      -0.050     +0.447     +0.000
      -0.000     -0.002     -0.000
      +0.000     +0.001     +0.002
      +0.000     +0.020     +0.000
      +0.000     +0.001     -0.002
      +0.001     -0.001     +0.000
vibration  40
      -0.002     -0.001     -0.000
      +0.001     -0.000     +0.000
      -0.004     +0.026     +0.000
      +0.034     -0.019     -0.000
      +0.056     +0.042     -0.000
      -0.006     +0.028     +0.000
      -0.000     +0.000     -0.000
      +0.028     -0.306     -0.000
      -0.393     +0.184     +0.000
      -0.630     -0.465     +0.000
      +0.038     -0.307     -0.000
      +0.000     +0.001     +0.000
      +0.000     -0.000     -0.001
      -0.000     -0.012     -0.000
      +0.000     -0.000     +0.001
      +0.000     -0.001     +0.000
vibration  41
      +0.000     -0.000     -0.000
      +0.004     -0.000     +0.000
      -0.006     +0.082     +0.000
      -0.029     +0.010     +0.000
      -0.011     -0.010     +0.000
      +0.001     -0.006     -0.000
      -0.000     -0.000     -0.000
      +0.074     -0.924     -0.000
      +0.296     -0.131     -0.000
      +0.124     +0.094     -0.000
      -0.008     +0.063     +0.000
      +0.000     -0.000     +0.000
      -0.001     -0.000     -0.001
      -0.000     +0.002     +0.000
      -0.001     -0.000     +0.001
      -0.001     -0.002     +0.000
vibration  42
      +0.000     +0.000     -0.000
      -0.001     +0.002     -0.000
      +0.001     -0.000     +0.000
      -0.000     +0.000     -0.000
      +0.000     +0.000     -0.000
      -0.000     -0.000     -0.000
      -0.057     +0.025     +0.000
      +0.001     +0.001     -0.000
      +0.001     -0.001     -0.000
      -0.000     -0.000     +0.000
      +0.001     +0.001     +0.000
      +0.000     +0.000     -0.000
      -0.001     +0.002     -0.003
      -0.000     -0.000     +0.000
      -0.001     +0.002     +0.003
      +0.897     -0.438     -0.000
