[Molden Format]
[FR-COORD] # Coordinates in bohr
  C    -1.293405    +1.124899    -0.050002 
  C    +1.175230    +1.342514    -0.001835 
  H    -2.511985    +2.746812    -0.080025 
  H    +1.973346    +3.206924    +0.018453 
  C    +2.957122    -0.876629    +0.056201 
  O    -2.484197    -1.221232    +0.039892 
  H    +1.902680    -2.623902    +0.032641 
  H    +4.219208    -0.838811    -1.561705 
  H    +4.118648    -0.834670    +1.747387 
  H    -4.078757    -1.215722    -0.841854 
[FREQ] # Frequencies in cm^-1
  144.4422
  151.1329
  288.0751
  484.2658
  726.5080
  855.3760
  960.5617
 1094.5017
 1126.1862
 1208.4534
 1214.2852
 1345.6725
 1407.6116
 1563.0881
 1584.2133
 1663.2735
 1672.1162
 1916.0208
 3189.7872
 3226.1806
 3302.3616
 3330.1294
 3364.6644
 3895.9579
[FR-NORM-COORD] # Displacements in bohr
vibration  1
      -0.000     -0.007     +0.006
      -0.002     +0.000     +0.036
      -0.000     -0.007     +0.010
      -0.007     +0.002     +0.043
      +0.005     +0.003     +0.019
      +0.013     -0.008     -0.077
      +0.001     -0.001     +0.488
      -0.328     -0.251     -0.249
      +0.353     +0.262     -0.228
      -0.259     +0.162     +0.426
vibration  2
      -0.000     -0.009     -0.010
      -0.001     +0.001     -0.021
      -0.001     -0.011     -0.031
      -0.007     +0.003     -0.050
      +0.002     +0.004     +0.013
      +0.023     -0.009     -0.030
      +0.017     -0.002     -0.291
      +0.226     +0.159     +0.192
      -0.233     -0.152     +0.180
      -0.378     +0.202     +0.709
vibration  3
      -0.002     +0.095     -0.004
      -0.013     +0.133     +0.004
      -0.149     -0.021     -0.000
      +0.092     +0.083     +0.015
      -0.288     -0.091     -0.002
      +0.287     -0.061     -0.005
      -0.554     +0.077     +0.008
      -0.295     -0.285     -0.012
      -0.276     -0.263     -0.007
      +0.231     -0.259     +0.100
vibration  4
      -0.001     +0.004     +0.230
      +0.008     +0.004     -0.239
      -0.006     +0.008     +0.658
      +0.008     +0.004     -0.241
      -0.006     +0.002     +0.056
      +0.000     -0.017     -0.092
      -0.017     +0.007     +0.229
      +0.184     -0.259     +0.205
      -0.207     +0.261     +0.193
      +0.033     +0.134     -0.154
vibration  5
      +0.182     -0.175     +0.015
      +0.166     +0.189     +0.017
      +0.141     -0.207     -0.138
      -0.029     +0.272     -0.156
      -0.080     +0.094     -0.002
      -0.158     -0.097     +0.008
      -0.509     +0.346     -0.037
      -0.123     -0.209     -0.038
      -0.072     -0.273     -0.004
      -0.101     +0.316     -0.108
vibration  6
      -0.018     +0.014     +0.123
      -0.019     -0.017     +0.045
      -0.015     +0.003     -0.509
      +0.023     -0.027     -0.788
      +0.001     -0.008     +0.018
      +0.019     +0.003     -0.040
      +0.052     -0.037     -0.088
      -0.098     +0.166     -0.060
      +0.111     -0.110     -0.057
      +0.044     +0.090     -0.080
vibration  7
      +0.135     -0.124     -0.004
      +0.022     -0.240     +0.002
      +0.338     +0.017     +0.029
      +0.111     -0.291     +0.035
      -0.253     +0.195     -0.008
      +0.056     +0.075     +0.005
      +0.137     -0.032     +0.007
      -0.209     +0.465     +0.026
      -0.205     +0.466     -0.041
      +0.080     +0.186     -0.029
vibration  8
      +0.032     +0.233     -0.046
      +0.099     +0.017     +0.025
      -0.007     +0.209     +0.199
      +0.659     -0.214     -0.154
      -0.068     -0.002     +0.009
      -0.095     -0.211     +0.009
      +0.243     -0.174     -0.015
      -0.051     +0.336     +0.022
      +0.015     +0.257     -0.049
      -0.110     -0.025     +0.000
vibration  9
      +0.002     +0.025     +0.107
      +0.013     +0.013     -0.058
      -0.035     -0.020     -0.744
      +0.098     -0.029     +0.545
      -0.013     -0.011     -0.046
      -0.009     -0.027     -0.001
      +0.076     -0.064     +0.085
      +0.128     -0.086     +0.065
      -0.134     +0.219     +0.037
      -0.002     +0.079     -0.018
vibration  10
      -0.006     +0.025     -0.020
      +0.006     -0.044     +0.139
      +0.070     +0.083     -0.005
      -0.022     -0.027     -0.312
      +0.020     +0.038     -0.140
      -0.006     -0.005     -0.005
      -0.144     +0.129     +0.292
      +0.393     -0.471     +0.159
      -0.415     +0.302     +0.167
      -0.027     -0.170     +0.037
vibration  11
      -0.027     +0.091     +0.041
      +0.034     -0.141     -0.054
      +0.207     +0.266     -0.120
      -0.057     -0.102     +0.138
      +0.050     +0.124     +0.046
      -0.018     -0.031     -0.018
      -0.433     +0.409     -0.106
      -0.144     -0.150     -0.111
      +0.107     -0.386     +0.007
      -0.076     -0.431     +0.095
vibration  12
      -0.013     +0.067     -0.041
      -0.056     -0.075     +0.004
      -0.140     -0.028     +0.020
      -0.118     -0.051     +0.040
      +0.041     +0.034     -0.003
      +0.040     -0.065     +0.037
      -0.157     +0.148     +0.002
      -0.009     -0.136     -0.039
      -0.030     -0.113     +0.044
      +0.138     +0.895     -0.183
vibration  13
      +0.058     +0.048     +0.001
      -0.028     +0.010     -0.002
      +0.512     +0.393     -0.024
      -0.663     +0.289     +0.001
      -0.023     -0.053     -0.001
      -0.002     -0.052     +0.003
      +0.104     -0.128     +0.002
      +0.001     +0.093     +0.022
      +0.000     +0.096     -0.022
      -0.003     +0.022     -0.009
vibration  14
      +0.043     +0.056     +0.004
      +0.067     -0.055     +0.002
      -0.431     -0.308     -0.000
      -0.353     +0.132     -0.015
      +0.034     -0.074     +0.002
      -0.016     +0.010     -0.005
      -0.365     +0.181     -0.012
      -0.139     +0.401     -0.105
      -0.141     +0.398     +0.094
      -0.030     -0.107     +0.028
vibration  15
      -0.031     -0.069     -0.002
      -0.077     +0.056     -0.002
      +0.423     +0.279     -0.003
      +0.387     -0.147     +0.017
      +0.089     -0.069     +0.002
      +0.015     -0.001     +0.003
      -0.360     +0.207     -0.011
      -0.232     +0.277     -0.220
      -0.249     +0.283     +0.205
      +0.024     +0.083     -0.016
vibration  16
      +0.032     +0.018     +0.002
      +0.005     +0.001     +0.002
      -0.077     -0.067     -0.000
      -0.068     +0.034     -0.008
      +0.036     +0.036     +0.009
      -0.007     -0.001     -0.002
      +0.374     -0.189     -0.089
      -0.481     -0.243     -0.385
      -0.474     -0.113     +0.340
      -0.012     -0.061     +0.009
vibration  17
      +0.004     +0.003     +0.002
      +0.002     +0.000     -0.018
      -0.010     -0.008     +0.006
      -0.011     +0.005     +0.022
      +0.007     +0.005     -0.054
      -0.001     -0.001     -0.001
      +0.031     -0.025     +0.717
      +0.030     +0.445     +0.005
      -0.167     -0.493     +0.102
      -0.003     -0.005     +0.003
vibration  18
      -0.442     -0.103     -0.021
      +0.434     -0.019     +0.013
      +0.125     +0.443     +0.004
      -0.190     +0.329     -0.004
      -0.043     +0.005     -0.002
      +0.048     +0.008     +0.013
      +0.119     -0.091     +0.001
      -0.148     +0.111     -0.088
      -0.156     +0.124     +0.078
      +0.083     +0.347     -0.075
vibration  19
      +0.000     +0.001     -0.000
      +0.001     +0.002     -0.000
      +0.005     -0.009     +0.000
      -0.014     -0.024     -0.000
      -0.051     +0.017     +0.001
      -0.000     -0.000     +0.000
      -0.163     -0.245     -0.003
      +0.415     +0.019     -0.561
      +0.353     +0.019     +0.546
      -0.000     +0.000     -0.001
vibration  20
      -0.000     +0.000     +0.000
      -0.000     -0.000     +0.000
      +0.000     -0.000     +0.001
      +0.001     +0.001     -0.000
      -0.001     -0.000     +0.091
      -0.000     +0.000     -0.000
      +0.004     +0.006     +0.026
      +0.428     +0.020     -0.527
      -0.422     -0.023     -0.593
      +0.000     +0.000     +0.001
vibration  21
      +0.003     -0.004     +0.000
      +0.006     +0.013     +0.000
      -0.034     +0.046     -0.001
      -0.073     -0.158     -0.002
      -0.056     -0.066     -0.001
      -0.001     +0.000     -0.000
      +0.491     +0.805     +0.012
      +0.106     -0.007     -0.157
      +0.093     -0.008     +0.161
      +0.001     +0.001     +0.001
vibration  22
      -0.046     +0.054     -0.001
      -0.015     -0.040     -0.000
      +0.510     -0.662     +0.013
      +0.207     +0.481     +0.005
      -0.008     -0.009     -0.000
      +0.001     +0.000     +0.000
      +0.069     +0.114     +0.002
      +0.018     -0.002     -0.026
      +0.016     -0.002     +0.027
      -0.008     +0.004     -0.006
vibration  23
      +0.037     -0.036     +0.001
      -0.037     -0.065     -0.001
      -0.330     +0.421     -0.009
      +0.337     +0.760     +0.008
      -0.009     -0.006     -0.000
      -0.000     +0.001     -0.001
      +0.050     +0.091     +0.001
      +0.027     -0.003     -0.033
      +0.024     -0.003     +0.034
      +0.006     -0.004     +0.006
vibration  24
      -0.001     +0.003     -0.001
      +0.001     +0.000     -0.000
      +0.009     -0.006     +0.002
      -0.001     -0.000     +0.002
      +0.000     +0.000     -0.000
      -0.056     -0.003     -0.029
      +0.000     -0.001     -0.000
      +0.000     -0.000     +0.000
      +0.000     -0.000     +0.000
      +0.879     +0.016     +0.473
