[Molden Format]
[FR-COORD] # Coordinates in bohr
  C    -1.303124    +1.076021    +0.000002 
  C    +1.172425    +1.300146    +0.000007 
  H    -2.516021    +2.692151    +0.000003 
  H    +1.930802    +3.179649    +0.000027 
  C    +3.070171    -0.830967    +0.000002 
  O    -2.735209    -1.103118    -0.000011 
  H    +2.181775    -2.677773    -0.000363 
  H    +4.276321    -0.728666    -1.655616 
  H    +4.275887    -0.729086    +1.655964 
  H    -1.738813    -2.627431    +0.000024 
[FREQ] # Frequencies in cm^-1
   87.6440
  305.6391
  313.3658
  527.5022
  703.0534
  857.7017
  942.5123
 1102.9960
 1146.6835
 1195.2703
 1202.3715
 1361.3167
 1470.3830
 1565.5752
 1587.5390
 1660.0602
 1673.1380
 1883.2636
 3191.0542
 3236.6804
 3243.8800
 3357.1246
 3405.5739
 3920.6788
[FR-NORM-COORD] # Displacements in bohr
vibration  1
      -0.000     +0.000     -0.018
      -0.000     +0.000     -0.035
      -0.000     -0.000     -0.054
      +0.000     +0.000     -0.056
      -0.000     -0.000     -0.004
      +0.000     -0.000     +0.040
      +0.000     +0.000     -0.578
      +0.362     +0.321     +0.282
      -0.362     -0.322     +0.282
      +0.000     +0.000     +0.169
vibration  2
      -0.001     +0.090     -0.000
      -0.015     +0.140     +0.000
      -0.141     -0.018     -0.000
      +0.095     +0.090     +0.000
      -0.279     -0.091     -0.000
      +0.263     -0.079     -0.000
      -0.521     +0.030     +0.000
      -0.268     -0.281     -0.002
      -0.267     -0.281     +0.001
      +0.444     +0.048     +0.002
vibration  3
      -0.000     +0.000     +0.037
      -0.000     +0.000     -0.088
      -0.000     -0.000     +0.173
      +0.000     +0.000     -0.119
      -0.000     -0.000     +0.036
      +0.000     -0.000     +0.048
      -0.000     +0.000     +0.048
      +0.124     -0.046     +0.125
      -0.124     +0.046     +0.125
      +0.000     +0.000     -0.935
vibration  4
      -0.000     +0.000     -0.236
      -0.000     -0.000     +0.216
      -0.000     +0.000     -0.599
      -0.000     -0.000     +0.162
      -0.000     -0.000     -0.036
      +0.000     +0.000     +0.132
      -0.000     +0.000     -0.176
      -0.179     +0.207     -0.158
      +0.179     -0.207     -0.158
      +0.000     +0.000     -0.513
vibration  5
      -0.164     +0.159     +0.000
      -0.148     -0.162     -0.000
      -0.128     +0.186     +0.000
      +0.041     -0.237     +0.000
      +0.071     -0.087     -0.000
      +0.116     +0.045     -0.000
      +0.512     -0.299     -0.000
      +0.066     +0.220     +0.012
      +0.066     +0.220     -0.012
      +0.475     +0.281     +0.000
vibration  6
      +0.000     -0.000     -0.117
      +0.000     -0.000     -0.053
      +0.000     +0.000     +0.438
      +0.000     -0.000     +0.841
      -0.000     +0.000     -0.019
      +0.000     -0.000     +0.044
      +0.000     -0.000     +0.091
      +0.117     -0.131     +0.061
      -0.117     +0.131     +0.061
      +0.000     +0.000     +0.069
vibration  7
      +0.133     -0.132     +0.000
      +0.005     -0.263     +0.000
      +0.348     +0.016     -0.000
      +0.030     -0.285     -0.000
      -0.259     +0.194     -0.000
      +0.098     +0.111     -0.000
      +0.124     +0.015     -0.000
      -0.232     +0.456     +0.030
      -0.232     +0.456     -0.030
      -0.149     -0.043     -0.000
vibration  8
      -0.067     -0.189     -0.000
      -0.134     -0.006     -0.000
      -0.070     -0.192     +0.000
      -0.666     +0.201     -0.000
      +0.100     -0.018     +0.000
      +0.144     +0.192     +0.000
      -0.253     +0.137     -0.000
      +0.065     -0.313     -0.039
      +0.065     -0.313     +0.039
      -0.236     -0.036     -0.000
vibration  9
      +0.000     +0.000     -0.121
      +0.000     -0.000     +0.055
      +0.000     +0.000     +0.815
      +0.000     -0.000     -0.489
      -0.000     +0.000     +0.044
      -0.000     -0.000     +0.003
      -0.000     +0.000     -0.081
      -0.130     +0.122     -0.047
      +0.130     -0.122     -0.047
      +0.000     +0.000     +0.054
vibration  10
      +0.000     -0.000     -0.032
      -0.000     +0.000     +0.143
      -0.000     -0.000     +0.044
      +0.000     +0.000     -0.314
      -0.000     -0.000     -0.149
      +0.000     +0.000     +0.001
      +0.000     -0.000     +0.319
      +0.464     -0.358     +0.182
      -0.464     +0.358     +0.182
      -0.000     -0.000     +0.030
vibration  11
      +0.025     -0.061     +0.000
      -0.020     +0.145     -0.000
      -0.216     -0.243     +0.000
      +0.150     +0.077     +0.000
      -0.054     -0.128     +0.000
      +0.033     +0.042     +0.000
      +0.497     -0.386     -0.000
      +0.001     +0.322     +0.061
      +0.002     +0.321     -0.061
      -0.394     -0.229     -0.000
vibration  12
      -0.052     +0.089     -0.000
      +0.001     -0.066     -0.000
      -0.402     -0.167     +0.000
      +0.410     -0.233     -0.000
      +0.040     +0.048     +0.000
      +0.056     -0.007     +0.000
      -0.214     +0.177     +0.000
      +0.005     -0.062     -0.032
      +0.005     -0.062     +0.032
      -0.570     -0.394     -0.000
vibration  13
      +0.040     +0.117     +0.000
      -0.036     -0.020     -0.000
      +0.398     +0.396     -0.000
      -0.546     +0.192     +0.000
      +0.006     -0.047     -0.000
      +0.031     -0.065     +0.000
      -0.030     -0.018     +0.000
      -0.012     +0.108     -0.000
      -0.012     +0.108     +0.000
      -0.423     -0.349     -0.000
vibration  14
      -0.065     -0.077     -0.000
      -0.085     +0.072     -0.000
      +0.600     +0.430     +0.000
      +0.547     -0.190     -0.000
      +0.010     +0.028     +0.000
      +0.027     -0.003     +0.000
      +0.099     -0.029     +0.000
      +0.057     -0.167     +0.015
      +0.057     -0.167     -0.015
      -0.118     -0.095     -0.000
vibration  15
      -0.002     -0.037     -0.000
      -0.025     +0.023     +0.000
      +0.102     +0.039     -0.000
      +0.163     -0.053     -0.000
      +0.096     -0.082     +0.000
      -0.001     +0.009     +0.000
      -0.445     +0.200     -0.000
      -0.353     +0.385     -0.270
      -0.353     +0.385     +0.270
      +0.077     +0.061     -0.000
vibration  16
      -0.000     -0.000     -0.001
      +0.000     -0.000     +0.019
      +0.000     +0.000     -0.011
      +0.000     -0.000     -0.021
      -0.000     -0.000     +0.052
      +0.000     +0.000     +0.001
      -0.000     +0.000     -0.700
      -0.063     -0.496     -0.052
      +0.064     +0.496     -0.052
      -0.000     -0.000     -0.014
vibration  17
      +0.034     +0.021     -0.000
      -0.010     +0.001     +0.000
      -0.041     -0.038     -0.000
      -0.053     +0.019     -0.000
      +0.029     +0.053     +0.000
      -0.004     -0.007     -0.000
      +0.437     -0.186     -0.000
      -0.434     -0.274     -0.342
      -0.434     -0.274     +0.341
      -0.041     -0.036     +0.000
vibration  18
      -0.445     -0.092     -0.000
      +0.463     -0.017     +0.000
      +0.110     +0.431     +0.000
      -0.237     +0.337     -0.000
      -0.048     +0.005     -0.000
      +0.055     +0.026     +0.000
      +0.164     -0.104     +0.000
      -0.197     +0.123     -0.106
      -0.197     +0.123     +0.106
      -0.166     -0.097     -0.000
vibration  19
      +0.001     +0.001     -0.000
      +0.000     +0.001     -0.000
      +0.002     -0.006     -0.000
      -0.007     -0.009     -0.000
      -0.036     +0.032     -0.000
      -0.000     -0.001     +0.000
      -0.252     -0.472     -0.000
      +0.341     +0.044     -0.488
      +0.340     +0.044     +0.488
      -0.001     +0.003     -0.000
vibration  20
      +0.000     +0.000     +0.000
      -0.000     -0.000     +0.000
      -0.000     +0.000     +0.001
      +0.000     +0.000     -0.000
      +0.000     +0.000     +0.092
      +0.000     -0.000     -0.000
      -0.000     -0.000     +0.025
      +0.422     +0.045     -0.561
      -0.422     -0.045     -0.561
      -0.000     +0.000     +0.001
vibration  21
      -0.000     -0.001     +0.000
      +0.002     +0.006     +0.000
      +0.002     -0.001     -0.000
      -0.031     -0.067     -0.000
      -0.065     -0.064     +0.000
      -0.000     +0.001     +0.000
      +0.377     +0.751     +0.000
      +0.203     +0.003     -0.315
      +0.202     +0.003     +0.314
      +0.005     -0.002     +0.000
vibration  22
      +0.013     -0.020     -0.000
      +0.034     +0.074     +0.000
      -0.186     +0.247     +0.000
      -0.359     -0.874     -0.000
      +0.005     +0.003     -0.000
      -0.001     -0.000     -0.000
      -0.021     -0.050     -0.000
      -0.019     +0.002     +0.025
      -0.019     +0.002     -0.025
      +0.005     -0.008     +0.000
vibration  23
      -0.057     +0.064     -0.000
      +0.018     +0.024     +0.000
      +0.578     -0.751     -0.000
      -0.120     -0.278     -0.000
      +0.002     +0.001     +0.000
      +0.002     -0.002     +0.000
      -0.004     -0.015     -0.000
      -0.009     +0.001     +0.011
      -0.009     +0.001     -0.011
      -0.024     +0.020     -0.000
vibration  24
      +0.004     -0.002     +0.000
      -0.000     +0.001     -0.000
      -0.017     +0.024     -0.000
      +0.002     -0.000     -0.000
      -0.000     +0.000     +0.000
      +0.031     -0.053     +0.000
      +0.008     +0.003     -0.000
      -0.000     -0.001     -0.000
      -0.000     -0.001     +0.000
      -0.530     +0.845     -0.000
