[Molden Format]
[FR-COORD] # Coordinates in bohr
  C    -1.311692    +1.094830    -0.006913 
  C    +1.159397    +1.351979    -0.001209 
  H    -2.574859    +2.671128    -0.015200 
  H    +1.919681    +3.227803    -0.005116 
  C    +2.997991    -0.845986    +0.010583 
  O    -2.653440    -1.141757    -0.003391 
  H    +2.774720    -2.033587    -1.650594 
  H    +4.926020    -0.165254    +0.013328 
  H    +2.766180    -2.022853    +1.678216 
  H    -1.582926    -2.617448    +0.003854 
[FREQ] # Frequencies in cm^-1
 -100.0003
  258.1835
  325.7507
  539.8262
  717.1781
  847.9256
  955.7001
 1118.4562
 1138.9101
 1182.3670
 1198.6684
 1355.7885
 1465.0306
 1554.1511
 1583.9194
 1667.8213
 1677.2068
 1870.6019
 3175.0691
 3213.6168
 3270.1005
 3372.3124
 3411.9856
 3905.1544
[FR-NORM-COORD] # Displacements in bohr
vibration  1
      +0.000     -0.000     -0.011
      +0.000     -0.000     -0.039
      +0.000     -0.000     -0.030
      +0.000     -0.000     -0.110
      -0.000     -0.000     -0.004
      -0.000     +0.000     +0.048
      +0.393     +0.304     -0.274
      -0.002     +0.002     +0.583
      -0.392     -0.305     -0.274
      +0.000     +0.000     -0.000
vibration  2
      -0.001     +0.084     -0.000
      -0.013     +0.131     -0.000
      -0.134     -0.027     -0.000
      +0.096     +0.082     +0.000
      -0.278     -0.087     -0.000
      +0.261     -0.073     +0.001
      -0.450     -0.055     -0.003
      -0.179     -0.373     +0.001
      -0.450     -0.055     +0.001
      +0.444     +0.063     +0.001
vibration  3
      -0.000     +0.000     +0.037
      +0.000     -0.000     -0.074
      -0.000     +0.001     +0.163
      +0.000     -0.000     -0.107
      -0.000     +0.000     +0.040
      -0.000     +0.000     +0.038
      +0.048     -0.104     +0.105
      -0.000     +0.000     +0.034
      -0.048     +0.105     +0.104
      +0.002     -0.003     -0.950
vibration  4
      -0.001     +0.001     +0.238
      +0.001     -0.001     -0.218
      -0.002     +0.002     +0.614
      +0.001     -0.001     -0.192
      -0.000     +0.000     +0.039
      +0.000     -0.000     -0.134
      +0.172     -0.204     +0.167
      -0.000     +0.001     +0.190
      -0.173     +0.205     +0.165
      -0.001     +0.001     +0.478
vibration  5
      +0.177     -0.156     +0.001
      +0.153     +0.159     -0.000
      +0.147     -0.182     +0.001
      -0.012     +0.226     -0.001
      -0.082     +0.099     -0.001
      -0.122     -0.054     -0.000
      -0.372     +0.135     +0.011
      +0.070     -0.345     +0.001
      -0.372     +0.135     -0.014
      -0.472     -0.309     -0.000
vibration  6
      +0.000     -0.000     -0.110
      +0.000     -0.000     -0.066
      -0.001     +0.001     +0.433
      -0.002     +0.003     +0.858
      +0.000     -0.000     -0.012
      -0.000     +0.000     +0.044
      +0.097     -0.105     +0.057
      -0.000     +0.000     +0.079
      -0.098     +0.106     +0.056
      -0.000     +0.000     +0.058
vibration  7
      +0.124     -0.134     +0.001
      +0.001     -0.282     +0.001
      +0.348     +0.033     +0.001
      -0.017     -0.291     +0.001
      -0.254     +0.204     -0.001
      +0.103     +0.122     -0.000
      +0.044     +0.155     -0.008
      -0.385     +0.572     -0.003
      +0.044     +0.155     +0.008
      -0.136     -0.043     -0.000
vibration  8
      -0.048     -0.222     +0.000
      -0.136     +0.055     -0.000
      -0.125     -0.286     +0.001
      -0.641     +0.255     -0.003
      +0.086     -0.067     +0.000
      +0.144     +0.212     -0.000
      -0.083     -0.068     +0.018
      +0.165     -0.291     +0.001
      -0.082     -0.068     -0.018
      -0.354     -0.124     -0.000
vibration  9
      -0.000     +0.000     +0.125
      +0.000     -0.000     -0.060
      +0.002     -0.003     -0.823
      -0.002     +0.002     +0.482
      +0.000     -0.000     -0.041
      +0.000     +0.000     -0.004
      +0.100     -0.136     +0.046
      -0.000     +0.000     +0.081
      -0.100     +0.136     +0.044
      +0.000     -0.000     -0.052
vibration  10
      +0.000     -0.000     -0.036
      -0.000     +0.000     +0.137
      -0.000     +0.000     +0.060
      +0.001     -0.001     -0.240
      +0.000     -0.000     -0.148
      -0.000     +0.000     +0.003
      +0.327     -0.510     +0.186
      -0.001     +0.001     +0.306
      -0.328     +0.511     +0.181
      -0.000     +0.000     +0.019
vibration  11
      +0.036     -0.024     +0.000
      +0.010     +0.133     -0.000
      -0.180     -0.198     +0.000
      +0.220     +0.050     +0.000
      -0.079     -0.114     +0.000
      +0.008     +0.008     -0.000
      +0.407     -0.111     -0.059
      -0.287     +0.512     -0.002
      +0.407     -0.111     +0.062
      -0.295     -0.207     -0.000
vibration  12
      -0.054     +0.069     -0.000
      +0.000     -0.056     +0.000
      -0.435     -0.233     -0.000
      +0.466     -0.250     +0.002
      +0.039     +0.053     -0.000
      +0.053     +0.006     +0.000
      -0.141     +0.036     +0.036
      +0.092     -0.108     +0.001
      -0.141     +0.036     -0.037
      -0.504     -0.375     -0.000
vibration  13
      +0.032     +0.127     -0.000
      -0.040     -0.025     -0.000
      +0.349     +0.392     -0.000
      -0.484     +0.163     -0.002
      +0.015     -0.037     +0.000
      +0.042     -0.065     +0.000
      -0.041     +0.008     -0.017
      -0.044     +0.120     -0.000
      -0.041     +0.008     +0.017
      -0.483     -0.428     +0.000
vibration  14
      -0.058     -0.080     +0.000
      -0.087     +0.074     -0.000
      +0.570     +0.430     +0.000
      +0.539     -0.189     +0.002
      +0.000     +0.034     -0.000
      +0.026     -0.001     +0.000
      +0.106     -0.123     +0.084
      +0.095     -0.213     +0.001
      +0.106     -0.123     -0.083
      -0.102     -0.091     +0.000
vibration  15
      -0.010     -0.045     +0.000
      -0.033     +0.024     -0.000
      +0.143     +0.076     +0.000
      +0.238     -0.089     +0.001
      +0.080     -0.093     +0.001
      +0.002     +0.010     -0.000
      -0.386     +0.347     -0.223
      -0.138     +0.478     -0.002
      -0.388     +0.348     +0.218
      +0.047     +0.043     -0.000
vibration  16
      +0.024     -0.004     +0.000
      -0.008     +0.015     -0.000
      -0.005     -0.033     +0.000
      +0.005     +0.009     -0.000
      +0.049     +0.027     +0.000
      -0.007     -0.000     -0.000
      -0.291     -0.436     +0.360
      -0.117     +0.412     -0.002
      -0.289     -0.438     -0.358
      +0.045     +0.038     +0.000
vibration  17
      +0.000     +0.000     +0.000
      -0.000     +0.000     +0.016
      +0.000     -0.000     -0.013
      +0.000     -0.000     -0.006
      -0.000     +0.000     +0.054
      +0.000     -0.000     -0.001
      +0.492     +0.014     -0.054
      +0.002     -0.002     -0.712
      -0.491     -0.014     -0.056
      -0.000     +0.000     +0.020
vibration  18
      -0.460     -0.104     -0.001
      +0.467     -0.012     +0.001
      +0.117     +0.474     -0.001
      -0.208     +0.338     -0.002
      -0.039     +0.004     -0.000
      +0.056     +0.028     +0.000
      -0.050     -0.048     +0.028
      -0.147     +0.293     -0.001
      -0.050     -0.048     -0.028
      -0.167     -0.108     -0.000
vibration  19
      -0.001     -0.001     +0.000
      +0.000     -0.000     +0.000
      -0.001     +0.005     -0.000
      +0.001     +0.001     -0.000
      +0.007     -0.054     +0.000
      +0.001     +0.000     -0.000
      +0.082     +0.376     +0.560
      -0.253     -0.107     -0.000
      +0.085     +0.372     -0.562
      +0.000     +0.004     -0.000
vibration  20
      +0.000     -0.000     -0.000
      -0.000     -0.000     -0.000
      -0.000     +0.000     +0.002
      -0.000     +0.000     +0.005
      -0.000     +0.000     +0.092
      +0.000     -0.000     -0.000
      -0.089     -0.413     -0.563
      -0.000     +0.000     +0.030
      +0.092     +0.409     -0.565
      -0.000     +0.000     +0.004
vibration  21
      -0.000     -0.000     +0.000
      +0.003     +0.005     -0.000
      -0.001     +0.002     -0.000
      -0.031     -0.071     +0.000
      -0.077     -0.042     -0.000
      +0.000     +0.000     +0.000
      +0.002     +0.093     +0.154
      +0.902     +0.329     +0.001
      +0.003     +0.092     -0.154
      +0.002     +0.002     -0.000
vibration  22
      +0.019     -0.025     +0.000
      +0.032     +0.072     -0.000
      -0.245     +0.304     -0.002
      -0.352     -0.843     +0.002
      +0.006     +0.002     +0.000
      -0.001     +0.000     -0.000
      +0.000     -0.008     -0.011
      -0.066     -0.021     -0.000
      +0.000     -0.008     +0.011
      +0.008     -0.010     +0.000
vibration  23
      -0.058     +0.061     -0.000
      +0.021     +0.031     -0.000
      +0.582     -0.709     +0.004
      -0.154     -0.354     +0.001
      +0.003     +0.000     +0.000
      +0.002     -0.002     +0.000
      +0.002     -0.001     -0.002
      -0.028     -0.007     -0.000
      +0.002     -0.001     +0.002
      -0.025     +0.019     -0.000
vibration  24
      +0.004     -0.002     +0.000
      -0.000     +0.001     -0.000
      -0.018     +0.024     -0.000
      +0.002     +0.000     +0.000
      -0.000     +0.000     -0.000
      +0.034     -0.052     +0.000
      +0.002     -0.001     -0.002
      +0.000     +0.000     +0.000
      +0.002     -0.001     +0.002
      -0.569     +0.819     -0.004
