[Molden Format]
[FR-COORD] # Coordinates in bohr
  C    -0.119021    +1.456428    -0.009051 
  C    +2.371689    +1.263182    +0.000366 
  H    -1.015919    +3.273713    -0.022836 
  H    +3.460572    +2.976279    -0.006207 
  C    +3.893696    -1.168468    +0.019878 
  C    -1.846995    -0.716858    -0.001865 
  H    +3.495918    -2.310803    -1.634173 
  H    +5.894687    -0.751438    +0.024026 
  H    +3.484922    -2.291055    +1.684732 
  O    -4.130857    -0.521074    -0.010630 
  H    -0.952342    -2.560522    +0.012086 
[FREQ] # Frequencies in cm^-1
 -101.9858
  155.0596
  230.3589
  420.9874
  477.5141
  673.5846
  816.1657
  956.9312
 1111.0916
 1140.8176
 1155.8533
 1227.3335
 1242.7463
 1381.4973
 1538.0525
 1570.1072
 1580.5513
 1659.1988
 1674.5222
 1839.2526
 1905.0781
 3189.3488
 3206.1420
 3254.1797
 3277.4107
 3338.3803
 3372.6208
[FR-NORM-COORD] # Displacements in bohr
vibration  1
      +0.000     -0.000     -0.012
      +0.000     -0.000     -0.031
      +0.000     -0.000     -0.057
      +0.000     -0.001     -0.109
      -0.000     +0.000     +0.003
      -0.000     +0.000     +0.032
      +0.416     +0.269     -0.288
      -0.002     +0.003     +0.566
      -0.414     -0.273     -0.287
      -0.000     +0.000     +0.013
      -0.000     +0.000     +0.069
vibration  2
      +0.000     -0.001     -0.120
      -0.000     +0.000     +0.037
      +0.000     -0.000     -0.033
      -0.001     +0.001     +0.212
      -0.000     +0.001     +0.089
      +0.001     -0.002     -0.278
      +0.080     +0.000     +0.070
      -0.001     +0.001     +0.185
      -0.080     +0.001     +0.069
      -0.001     +0.001     +0.227
      +0.003     -0.005     -0.863
vibration  3
      +0.012     +0.195     -0.001
      +0.000     +0.081     -0.000
      +0.013     +0.192     -0.001
      +0.157     -0.022     +0.001
      -0.293     -0.109     -0.000
      +0.152     +0.082     +0.000
      -0.436     -0.057     -0.001
      -0.240     -0.372     +0.001
      -0.436     -0.057     -0.001
      +0.136     -0.177     +0.001
      +0.324     +0.169     +0.000
vibration  4
      +0.001     -0.001     -0.247
      -0.001     +0.001     +0.221
      +0.001     -0.002     -0.395
      -0.002     +0.003     +0.523
      +0.000     -0.000     -0.061
      -0.000     +0.000     +0.039
      -0.124     +0.219     -0.181
      +0.001     -0.001     -0.161
      +0.126     -0.221     -0.178
      -0.000     +0.000     +0.031
      -0.002     +0.003     +0.486
vibration  5
      +0.000     -0.217     +0.001
      -0.014     +0.130     -0.001
      -0.316     -0.376     +0.001
      -0.112     +0.187     -0.001
      -0.192     +0.089     -0.001
      +0.111     -0.254     +0.002
      -0.322     +0.132     +0.000
      -0.144     -0.151     +0.000
      -0.322     +0.132     -0.004
      +0.158     +0.218     -0.001
      -0.160     -0.376     +0.002
vibration  6
      -0.214     +0.052     -0.001
      -0.282     -0.200     +0.000
      -0.198     +0.052     -0.001
      -0.240     -0.231     +0.001
      +0.029     -0.050     +0.000
      +0.161     +0.056     +0.000
      +0.344     -0.146     -0.008
      -0.077     +0.477     -0.003
      +0.344     -0.146     +0.012
      +0.202     +0.100     +0.000
      +0.266     +0.108     +0.000
vibration  7
      -0.000     +0.000     +0.057
      -0.000     +0.000     +0.080
      +0.002     -0.004     -0.613
      +0.002     -0.004     -0.611
      -0.000     +0.000     +0.019
      -0.000     +0.000     +0.006
      -0.143     +0.202     -0.094
      +0.001     -0.001     -0.158
      +0.144     -0.203     -0.090
      +0.000     -0.000     -0.005
      +0.001     -0.002     -0.276
vibration  8
      +0.142     -0.132     +0.001
      +0.035     -0.277     +0.002
      +0.556     +0.057     +0.002
      -0.002     -0.266     +0.002
      -0.205     +0.277     -0.002
      +0.010     +0.113     -0.001
      -0.063     +0.219     +0.004
      -0.243     +0.439     -0.003
      -0.063     +0.219     -0.007
      +0.000     -0.034     +0.000
      +0.022     +0.112     -0.001
vibration  9
      -0.059     -0.187     +0.001
      -0.038     +0.006     -0.000
      -0.008     -0.168     +0.001
      -0.437     +0.258     -0.003
      +0.095     +0.009     +0.000
      +0.034     +0.208     -0.001
      -0.317     +0.085     +0.044
      +0.199     -0.528     +0.004
      -0.317     +0.084     -0.047
      +0.023     -0.026     +0.000
      +0.126     +0.256     -0.001
vibration  10
      -0.000     +0.000     +0.056
      -0.000     +0.000     +0.004
      +0.002     -0.004     -0.630
      -0.001     +0.002     +0.400
      +0.000     -0.001     -0.094
      -0.000     +0.000     +0.058
      +0.178     -0.339     +0.107
      -0.001     +0.001     +0.204
      -0.179     +0.340     +0.101
      +0.000     -0.000     -0.013
      +0.001     -0.002     -0.265
vibration  11
      -0.000     +0.001     +0.115
      -0.000     +0.000     +0.028
      +0.001     -0.002     -0.272
      +0.001     -0.001     -0.181
      +0.000     -0.000     -0.044
      +0.001     -0.001     -0.223
      +0.078     -0.160     +0.052
      -0.000     +0.001     +0.102
      -0.078     +0.160     +0.050
      -0.000     +0.000     +0.054
      -0.003     +0.005     +0.863
vibration  12
      +0.000     -0.001     -0.093
      -0.001     +0.001     +0.170
      -0.001     +0.002     +0.384
      +0.002     -0.004     -0.626
      +0.000     -0.001     -0.107
      -0.000     +0.000     +0.030
      +0.162     -0.365     +0.116
      -0.001     +0.001     +0.233
      -0.163     +0.366     +0.110
      +0.000     -0.000     -0.007
      +0.000     -0.001     -0.102
vibration  13
      +0.050     -0.150     +0.001
      +0.035     +0.138     -0.001
      -0.214     -0.283     +0.001
      +0.014     +0.151     -0.001
      -0.109     -0.109     +0.000
      +0.012     +0.135     -0.001
      +0.401     -0.161     -0.079
      -0.233     +0.549     -0.004
      +0.400     -0.160     +0.084
      -0.016     -0.025     +0.000
      +0.025     +0.146     -0.001
vibration  14
      +0.032     -0.007     +0.000
      -0.052     +0.050     -0.000
      +0.716     +0.323     +0.000
      -0.488     +0.331     -0.004
      -0.015     -0.052     +0.000
      -0.012     -0.052     +0.000
      +0.072     -0.044     -0.026
      -0.036     +0.064     -0.001
      +0.072     -0.044     +0.027
      +0.012     +0.008     -0.000
      +0.019     -0.042     +0.000
vibration  15
      -0.073     -0.079     +0.000
      -0.011     +0.064     -0.000
      +0.330     +0.113     +0.000
      +0.471     -0.244     +0.003
      -0.008     +0.030     -0.000
      -0.011     -0.042     +0.000
      +0.086     -0.074     +0.042
      +0.041     -0.173     +0.001
      +0.086     -0.075     -0.041
      -0.028     +0.032     -0.000
      +0.661     +0.281     +0.001
vibration  16
      +0.054     +0.058     -0.000
      +0.062     -0.073     +0.001
      -0.358     -0.140     -0.000
      -0.474     +0.272     -0.003
      -0.026     -0.002     -0.000
      +0.004     -0.066     +0.000
      +0.036     +0.044     -0.044
      -0.026     -0.001     -0.000
      +0.036     +0.044     +0.044
      -0.064     +0.032     -0.000
      +0.675     +0.248     +0.001
vibration  17
      +0.016     +0.018     -0.000
      +0.005     -0.008     +0.000
      -0.075     -0.027     -0.000
      -0.137     +0.080     -0.001
      -0.051     +0.105     -0.001
      +0.001     +0.009     -0.000
      +0.267     -0.466     +0.290
      +0.072     -0.430     +0.003
      +0.269     -0.469     -0.282
      +0.005     -0.007     +0.000
      -0.129     -0.052     -0.000
vibration  18
      -0.027     +0.004     -0.000
      +0.009     -0.016     +0.000
      +0.000     +0.020     -0.000
      -0.007     -0.005     +0.000
      -0.059     -0.002     -0.000
      -0.003     +0.010     -0.000
      +0.393     +0.319     -0.322
      +0.076     -0.506     +0.003
      +0.391     +0.323     +0.321
      +0.013     -0.005     +0.000
      -0.109     -0.037     -0.000
vibration  19
      -0.000     +0.000     +0.002
      +0.000     -0.000     -0.019
      -0.000     +0.000     +0.011
      -0.000     +0.000     +0.013
      +0.000     -0.000     -0.053
      -0.000     +0.000     -0.001
      -0.489     +0.061     +0.053
      -0.002     +0.004     +0.711
      +0.489     -0.060     +0.057
      +0.000     -0.000     -0.000
      -0.000     -0.000     -0.003
vibration  20
      +0.434     +0.012     +0.001
      -0.470     +0.079     -0.002
      -0.109     -0.325     +0.002
      +0.192     -0.422     +0.003
      +0.052     -0.006     +0.000
      +0.201     -0.008     +0.001
      +0.022     +0.087     -0.058
      +0.129     -0.348     +0.003
      +0.022     +0.088     +0.057
      -0.184     +0.004     -0.001
      +0.093     -0.072     +0.001
vibration  21
      -0.243     -0.014     -0.001
      +0.167     -0.030     +0.001
      +0.269     +0.236     -0.001
      -0.044     +0.131     -0.001
      -0.018     +0.001     -0.000
      +0.583     +0.005     +0.002
      +0.012     -0.031     +0.012
      -0.041     +0.096     -0.001
      +0.012     -0.031     -0.011
      -0.360     +0.030     -0.001
      -0.318     -0.425     +0.001
vibration  22
      +0.001     +0.003     -0.000
      -0.000     -0.001     +0.000
      +0.011     -0.018     +0.000
      -0.003     +0.000     -0.000
      -0.001     +0.019     -0.000
      +0.033     -0.071     +0.001
      -0.050     -0.129     -0.197
      +0.115     +0.032     +0.000
      -0.052     -0.127     +0.198
      -0.001     +0.000     -0.000
      -0.398     +0.839     -0.006
vibration  23
      -0.000     -0.001     +0.000
      +0.001     +0.001     -0.000
      -0.004     +0.001     -0.000
      -0.003     -0.006     +0.000
      -0.012     +0.046     -0.000
      -0.013     +0.027     -0.000
      -0.125     -0.323     -0.492
      +0.382     +0.094     +0.001
      -0.128     -0.317     +0.494
      +0.000     -0.000     +0.000
      +0.148     -0.311     +0.002
vibration  24
      -0.000     +0.000     +0.000
      +0.000     -0.000     -0.000
      +0.000     -0.000     -0.001
      +0.000     -0.000     -0.005
      +0.000     -0.001     -0.092
      -0.000     +0.000     +0.000
      +0.151     +0.398     +0.560
      +0.000     -0.000     -0.026
      -0.154     -0.392     +0.564
      -0.000     +0.000     +0.000
      +0.000     -0.000     -0.001
vibration  25
      +0.000     -0.001     +0.000
      +0.007     +0.009     -0.000
      -0.007     +0.015     -0.000
      -0.080     -0.122     +0.000
      -0.081     -0.040     -0.000
      +0.001     -0.003     +0.000
      +0.038     +0.146     +0.234
      +0.882     +0.193     +0.002
      +0.039     +0.143     -0.235
      -0.000     +0.000     -0.000
      -0.014     +0.031     -0.000
vibration  26
      -0.011     +0.029     -0.000
      -0.044     -0.065     +0.000
      +0.164     -0.344     +0.003
      +0.493     +0.765     -0.003
      -0.012     -0.005     -0.000
      -0.000     +0.000     -0.000
      +0.004     +0.020     +0.031
      +0.127     +0.024     +0.000
      +0.005     +0.020     -0.031
      +0.000     -0.000     +0.000
      +0.002     -0.005     +0.000
vibration  27
      +0.040     -0.071     +0.001
      -0.024     -0.026     +0.000
      -0.403     +0.828     -0.006
      +0.206     +0.313     -0.001
      -0.004     -0.000     -0.000
      +0.003     -0.001     +0.000
      -0.000     +0.004     +0.006
      +0.039     +0.006     +0.000
      -0.000     +0.004     -0.006
      -0.001     +0.000     -0.000
      -0.005     +0.019     -0.000
