[Molden Format]
[FR-COORD] # Coordinates in bohr
  C    -0.739118    +1.972465    -0.048810 
  C    +1.757129    +1.777067    -0.063403 
  H    -1.620398    +3.797788    -0.093394 
  H    +2.845789    +3.491401    -0.121382 
  C    +3.242846    -0.660263    -0.006694 
  C    -2.462419    -0.197605    +0.026739 
  H    +2.777586    -1.825016    -1.623652 
  H    +5.249859    -0.278007    -0.006923 
  H    +2.762978    -1.760476    +1.649850 
  O    -1.825968    -2.404987    +0.079379 
  H    -4.450045    +0.312671    +0.033134 
[FREQ] # Frequencies in cm^-1
  -21.1934
  180.8072
  255.7831
  452.9149
  458.0023
  785.2502
  889.2641
  934.6833
 1043.4788
 1127.1646
 1181.6761
 1218.1541
 1237.6165
 1387.0178
 1565.8973
 1575.2617
 1586.8815
 1643.3411
 1663.9799
 1809.7191
 1901.2951
 3173.8880
 3218.1222
 3272.7605
 3286.7327
 3327.9638
 3362.9254
[FR-NORM-COORD] # Displacements in bohr
vibration  1
      +0.001     -0.002     -0.018
      +0.001     -0.001     -0.033
      +0.000     -0.003     -0.055
      -0.001     -0.002     -0.096
      +0.004     +0.002     +0.007
      -0.001     +0.001     +0.050
      +0.426     +0.253     -0.304
      +0.001     +0.017     +0.545
      -0.411     -0.261     -0.297
      -0.004     -0.001     -0.001
      +0.001     +0.007     +0.153
vibration  2
      -0.001     +0.001     -0.021
      -0.002     -0.003     -0.117
      -0.002     -0.002     -0.096
      -0.002     -0.010     -0.308
      -0.003     +0.002     +0.124
      +0.003     +0.005     +0.195
      -0.061     -0.210     +0.298
      -0.003     -0.000     +0.021
      +0.054     +0.218     +0.290
      +0.003     -0.004     -0.193
      +0.007     +0.017     +0.720
vibration  3
      -0.064     +0.111     -0.004
      -0.073     -0.009     +0.002
      -0.067     +0.106     -0.004
      +0.065     -0.099     +0.006
      -0.319     -0.163     +0.004
      +0.084     +0.015     -0.003
      -0.418     -0.102     -0.007
      -0.281     -0.364     +0.042
      -0.469     -0.139     -0.029
      +0.351     +0.085     -0.000
      +0.030     -0.208     -0.002
vibration  4
      +0.145     +0.011     -0.028
      +0.149     +0.246     +0.013
      -0.061     -0.088     -0.032
      +0.169     +0.230     +0.049
      -0.214     +0.073     -0.005
      +0.174     -0.090     +0.008
      -0.460     +0.168     -0.003
      -0.137     -0.347     -0.007
      -0.437     +0.142     -0.023
      -0.146     -0.193     +0.007
      +0.216     +0.093     +0.058
vibration  5
      +0.011     +0.008     +0.253
      +0.007     +0.009     -0.198
      -0.001     +0.004     +0.330
      +0.006     -0.002     -0.542
      -0.013     +0.005     +0.047
      +0.010     -0.007     -0.061
      +0.116     -0.149     +0.116
      -0.009     -0.012     +0.181
      -0.164     +0.170     +0.108
      -0.008     -0.011     -0.006
      +0.007     -0.011     -0.580
vibration  6
      +0.001     +0.001     +0.047
      +0.001     +0.002     +0.082
      -0.005     -0.019     -0.650
      -0.004     -0.017     -0.583
      -0.000     +0.001     +0.016
      +0.000     +0.001     +0.036
      -0.146     +0.213     -0.104
      +0.001     -0.007     -0.163
      +0.141     -0.213     -0.094
      -0.000     -0.000     -0.022
      -0.002     -0.006     -0.217
vibration  7
      -0.110     +0.399     -0.010
      -0.121     +0.034     +0.001
      -0.230     +0.345     -0.010
      +0.198     -0.162     +0.000
      +0.083     -0.178     +0.004
      +0.184     -0.036     -0.001
      +0.354     -0.224     -0.036
      +0.007     +0.265     -0.010
      +0.362     -0.233     +0.045
      -0.081     -0.158     +0.005
      +0.165     -0.088     +0.001
vibration  8
      -0.026     +0.091     -0.002
      +0.121     +0.236     -0.007
      -0.084     +0.081     -0.006
      +0.097     +0.265     -0.009
      +0.160     -0.158     +0.003
      -0.291     -0.103     +0.006
      -0.136     -0.056     +0.016
      +0.246     -0.604     +0.018
      -0.144     -0.045     -0.012
      +0.050     -0.008     -0.000
      -0.343     -0.302     +0.010
vibration  9
      +0.115     +0.161     -0.006
      +0.093     -0.142     +0.003
      +0.486     +0.344     -0.008
      +0.359     -0.312     +0.005
      -0.110     +0.144     -0.003
      -0.181     -0.090     +0.004
      +0.052     +0.094     -0.012
      -0.144     +0.329     -0.011
      +0.057     +0.087     +0.006
      +0.026     -0.072     +0.002
      -0.224     -0.265     +0.012
vibration  10
      +0.001     +0.002     +0.061
      -0.000     -0.001     -0.005
      -0.003     -0.017     -0.634
      +0.003     +0.012     +0.432
      -0.001     -0.002     -0.092
      +0.000     +0.001     +0.057
      +0.175     -0.335     +0.110
      -0.004     +0.012     +0.211
      -0.167     +0.335     +0.096
      -0.000     -0.001     -0.015
      -0.002     -0.006     -0.213
vibration  11
      -0.001     -0.003     -0.102
      -0.000     -0.001     -0.049
      +0.001     +0.006     +0.246
      +0.004     +0.008     +0.276
      +0.000     +0.001     +0.049
      +0.002     +0.006     +0.213
      -0.080     +0.171     -0.056
      +0.001     -0.003     -0.105
      +0.079     -0.172     -0.049
      -0.000     -0.001     -0.050
      -0.009     -0.023     -0.843
vibration  12
      -0.058     +0.073     +0.001
      -0.043     -0.129     -0.000
      +0.171     +0.180     -0.015
      -0.194     -0.034     +0.017
      +0.119     +0.101     -0.001
      +0.050     +0.020     -0.001
      -0.439     +0.142     +0.119
      +0.232     -0.575     +0.011
      -0.439     +0.135     -0.129
      -0.011     -0.035     +0.001
      +0.033     -0.055     +0.002
vibration  13
      -0.002     -0.001     -0.099
      +0.000     +0.002     +0.168
      +0.008     +0.015     +0.372
      -0.011     -0.017     -0.599
      +0.001     -0.001     -0.110
      +0.002     +0.002     +0.052
      +0.148     -0.363     +0.121
      +0.002     -0.001     +0.261
      -0.159     +0.371     +0.102
      -0.000     -0.001     -0.011
      -0.001     -0.007     -0.197
vibration  14
      +0.050     -0.006     -0.000
      -0.050     +0.032     -0.001
      +0.628     +0.268     -0.013
      -0.598     +0.382     -0.006
      -0.019     -0.053     +0.002
      +0.003     +0.005     -0.000
      +0.067     -0.022     -0.042
      -0.039     +0.066     -0.003
      +0.069     -0.025     +0.043
      +0.003     -0.024     +0.001
      +0.002     -0.028     +0.001
vibration  15
      -0.021     -0.012     +0.001
      -0.048     +0.035     -0.001
      +0.202     +0.099     -0.004
      +0.196     -0.122     +0.002
      +0.011     +0.013     -0.000
      -0.062     -0.010     +0.001
      +0.002     -0.086     +0.068
      +0.027     -0.068     +0.003
      +0.003     -0.088     -0.065
      +0.053     -0.060     +0.001
      +0.159     +0.909     -0.026
vibration  16
      -0.060     -0.076     +0.003
      -0.041     +0.080     -0.002
      +0.452     +0.163     -0.008
      +0.399     -0.203     +0.002
      -0.013     +0.061     -0.001
      +0.049     +0.013     -0.001
      +0.141     -0.330     +0.217
      +0.053     -0.252     +0.003
      +0.140     -0.338     -0.204
      -0.024     +0.024     -0.000
      -0.027     -0.354     +0.010
vibration  17
      -0.056     -0.057     +0.002
      -0.038     +0.047     -0.001
      +0.350     +0.134     -0.007
      +0.377     -0.218     +0.004
      +0.046     -0.085     +0.001
      +0.026     +0.012     -0.001
      -0.177     +0.425     -0.280
      -0.020     +0.244     +0.001
      -0.173     +0.437     +0.264
      -0.007     +0.004     -0.000
      +0.010     -0.092     +0.002
vibration  18
      +0.021     -0.007     +0.000
      +0.000     +0.020     -0.000
      +0.004     -0.016     +0.000
      +0.010     +0.016     -0.001
      +0.064     -0.024     +0.001
      -0.007     +0.010     -0.000
      -0.415     -0.235     +0.280
      -0.088     +0.612     -0.010
      -0.409     -0.247     -0.274
      -0.001     -0.005     +0.000
      -0.020     -0.050     +0.001
vibration  19
      +0.001     +0.000     +0.003
      -0.001     -0.001     -0.021
      -0.002     -0.001     +0.010
      -0.001     +0.001     +0.019
      -0.000     -0.000     -0.053
      -0.000     -0.001     -0.002
      -0.480     +0.085     +0.048
      -0.002     +0.009     +0.715
      +0.484     -0.087     +0.053
      -0.000     +0.001     +0.001
      -0.000     -0.001     +0.004
vibration  20
      -0.461     -0.054     +0.005
      +0.467     -0.067     -0.002
      +0.153     +0.291     -0.010
      -0.167     +0.407     -0.010
      -0.069     +0.002     -0.000
      +0.003     +0.294     -0.008
      +0.092     -0.063     -0.006
      -0.122     +0.286     +0.003
      +0.108     -0.070     +0.010
      +0.044     -0.188     +0.005
      -0.052     +0.049     -0.001
vibration  21
      +0.215     -0.042     -0.001
      -0.198     +0.052     +0.000
      -0.272     -0.312     +0.011
      +0.140     -0.205     +0.005
      +0.015     -0.003     -0.000
      -0.116     +0.475     -0.012
      +0.062     +0.032     -0.035
      +0.055     -0.178     +0.004
      +0.062     +0.034     +0.035
      +0.082     -0.294     +0.007
      -0.339     -0.426     +0.015
vibration  22
      +0.004     -0.004     +0.000
      +0.000     -0.001     +0.000
      -0.044     +0.064     -0.001
      -0.002     +0.001     +0.000
      -0.001     -0.001     +0.000
      -0.082     +0.019     +0.000
      +0.001     +0.004     +0.005
      +0.010     +0.002     +0.000
      +0.002     +0.004     -0.005
      +0.000     -0.001     +0.000
      +0.966     -0.230     -0.004
vibration  23
      -0.000     -0.001     +0.000
      -0.001     -0.001     +0.000
      -0.001     +0.006     -0.000
      +0.013     +0.018     -0.001
      +0.024     -0.042     -0.002
      +0.000     +0.000     -0.000
      +0.145     +0.329     +0.480
      -0.555     -0.119     -0.000
      +0.139     +0.289     -0.461
      -0.000     -0.000     +0.000
      -0.001     +0.001     -0.000
vibration  24
      +0.000     +0.000     -0.001
      -0.001     -0.001     +0.001
      +0.001     -0.001     +0.000
      +0.008     +0.012     +0.006
      +0.008     +0.005     +0.090
      -0.000     +0.000     +0.000
      -0.173     -0.419     -0.561
      -0.090     -0.018     +0.020
      +0.173     +0.376     -0.540
      -0.000     -0.000     -0.000
      +0.001     -0.000     +0.003
vibration  25
      -0.000     +0.003     -0.000
      -0.011     -0.014     +0.000
      +0.014     -0.032     +0.001
      +0.118     +0.180     -0.007
      +0.078     +0.047     -0.009
      -0.002     +0.000     -0.000
      -0.057     -0.174     -0.271
      -0.776     -0.155     -0.001
      -0.093     -0.236     +0.382
      +0.000     -0.000     +0.000
      +0.015     -0.004     -0.000
vibration  26
      +0.011     -0.029     +0.001
      +0.043     +0.064     -0.002
      -0.163     +0.346     -0.009
      -0.484     -0.752     +0.025
      +0.017     +0.009     -0.001
      +0.002     -0.001     -0.000
      -0.012     -0.038     -0.056
      -0.180     -0.033     -0.000
      -0.015     -0.041     +0.066
      +0.000     +0.000     -0.000
      -0.025     +0.005     +0.000
vibration  27
      -0.039     +0.071     -0.002
      +0.024     +0.027     -0.001
      +0.397     -0.827     +0.020
      -0.208     -0.316     +0.011
      +0.005     +0.001     -0.000
      -0.007     -0.000     +0.000
      -0.001     -0.006     -0.009
      -0.049     -0.007     -0.000
      -0.001     -0.007     +0.011
      +0.000     -0.000     +0.000
      +0.069     -0.010     -0.000
