[Molden Format]
[FR-COORD] # Coordinates in bohr
  C    -0.388864    +1.713281    +0.381141 
  C    +2.092150    +1.532610    +0.415078 
  H    -1.283467    +3.538291    +0.357796 
  H    +3.194953    +3.239018    +0.432761 
  C    +3.586558    -0.897351    +0.422267 
  C    -2.151848    -0.491539    +0.385622 
  H    +2.373682    -2.542583    +0.355746 
  H    +4.831087    -0.962424    -1.206635 
  H    +4.759179    -1.012665    +2.101618 
  O    -3.062854    -1.460735    -1.474301 
  H    -2.629337    -1.187708    +2.257079 
[FREQ] # Frequencies in cm^-1
 -175.7850
  142.9656
  228.1261
  323.2598
  567.3395
  639.9755
  807.5448
  951.8928
 1020.7269
 1102.5905
 1133.9965
 1220.3150
 1255.1408
 1386.7682
 1551.9430
 1558.0129
 1584.6643
 1654.0482
 1661.3234
 1863.1339
 1905.6690
 3159.2555
 3194.9035
 3239.8855
 3273.3109
 3316.3551
 3341.4300
[FR-NORM-COORD] # Displacements in bohr
vibration  1
      -0.011     +0.041     +0.081
      -0.015     -0.023     -0.009
      +0.051     +0.077     +0.269
      +0.015     -0.042     +0.066
      -0.051     -0.042     -0.108
      -0.143     +0.148     +0.035
      -0.077     -0.018     -0.210
      -0.013     +0.018     -0.081
      -0.091     -0.135     -0.085
      +0.212     -0.120     -0.000
      -0.641     +0.529     +0.050
vibration  2
      +0.007     +0.001     -0.021
      +0.007     +0.003     -0.020
      +0.005     +0.000     -0.006
      +0.004     +0.005     +0.003
      +0.009     +0.004     -0.004
      +0.007     -0.000     +0.006
      +0.025     +0.015     -0.565
      +0.435     +0.250     +0.313
      -0.427     -0.247     +0.286
      -0.028     -0.008     +0.027
      +0.043     +0.004     +0.016
vibration  3
      -0.030     +0.121     +0.005
      -0.037     +0.070     -0.011
      -0.085     +0.087     -0.039
      +0.072     -0.003     -0.042
      -0.271     -0.079     -0.027
      +0.190     -0.051     +0.020
      -0.441     +0.050     -0.074
      -0.266     -0.194     -0.018
      -0.303     -0.241     -0.017
      +0.143     -0.007     +0.022
      +0.508     -0.310     +0.004
vibration  4
      -0.057     -0.071     +0.162
      -0.053     -0.041     -0.271
      -0.070     -0.078     +0.115
      -0.083     -0.017     -0.650
      +0.016     +0.002     +0.070
      -0.035     -0.064     +0.118
      +0.076     -0.046     +0.169
      +0.198     -0.163     +0.221
      -0.164     +0.257     +0.218
      +0.109     +0.149     -0.066
      -0.146     -0.240     +0.018
vibration  5
      +0.136     -0.053     +0.112
      +0.159     +0.157     -0.094
      +0.007     -0.104     +0.567
      +0.116     +0.181     +0.090
      -0.078     +0.051     +0.021
      -0.010     -0.055     -0.079
      -0.366     +0.257     +0.156
      -0.017     -0.356     +0.091
      -0.201     +0.001     +0.106
      -0.112     -0.082     -0.031
      -0.226     +0.124     -0.062
vibration  6
      -0.058     +0.168     +0.068
      -0.062     -0.078     -0.083
      +0.062     +0.231     +0.615
      +0.042     -0.145     +0.226
      +0.062     -0.055     +0.011
      +0.038     +0.069     -0.101
      +0.251     -0.199     +0.151
      +0.171     -0.072     +0.098
      -0.006     +0.272     +0.088
      -0.042     -0.077     +0.009
      +0.369     -0.112     -0.078
vibration  7
      -0.016     -0.161     -0.153
      -0.058     -0.050     -0.042
      -0.120     -0.203     +0.545
      -0.154     -0.000     +0.612
      -0.050     +0.045     -0.009
      +0.097     +0.031     +0.017
      -0.001     +0.004     +0.101
      +0.027     -0.061     +0.056
      -0.118     +0.219     +0.053
      +0.046     +0.087     +0.049
      -0.045     +0.274     +0.075
vibration  8
      -0.107     +0.075     -0.113
      -0.004     +0.207     -0.016
      -0.320     -0.013     +0.186
      -0.099     +0.273     +0.371
      +0.190     -0.189     -0.008
      -0.091     -0.078     +0.094
      -0.127     +0.033     +0.040
      +0.156     -0.499     -0.015
      +0.087     -0.372     +0.048
      +0.031     +0.034     -0.013
      -0.045     -0.147     +0.077
vibration  9
      +0.080     +0.092     -0.111
      +0.086     -0.079     -0.023
      +0.393     +0.244     +0.102
      +0.246     -0.183     +0.465
      -0.069     +0.099     -0.017
      -0.199     -0.113     +0.142
      -0.003     +0.054     +0.041
      +0.003     +0.069     +0.038
      -0.088     +0.234     +0.011
      +0.035     +0.005     -0.040
      +0.111     -0.494     +0.074
vibration  10
      +0.016     +0.107     -0.023
      +0.006     +0.040     +0.002
      -0.265     -0.025     +0.048
      +0.331     -0.166     -0.005
      -0.055     -0.056     +0.005
      +0.083     -0.150     +0.029
      +0.317     -0.323     -0.013
      +0.008     +0.295     +0.032
      +0.051     +0.231     -0.044
      -0.032     +0.024     -0.014
      -0.533     +0.317     +0.047
vibration  11
      +0.004     +0.001     -0.092
      +0.005     -0.006     +0.023
      +0.027     +0.023     +0.644
      +0.001     +0.002     -0.517
      -0.000     +0.008     +0.083
      -0.021     -0.004     +0.011
      -0.020     +0.032     -0.165
      -0.212     +0.267     -0.098
      +0.209     -0.294     -0.093
      +0.005     +0.002     -0.005
      +0.059     -0.054     +0.012
vibration  12
      -0.001     -0.004     +0.066
      +0.001     +0.002     -0.172
      -0.010     -0.013     -0.207
      -0.011     +0.003     +0.555
      -0.002     -0.003     +0.133
      +0.007     +0.009     -0.007
      +0.006     +0.008     -0.294
      -0.322     +0.358     -0.146
      +0.330     -0.357     -0.142
      -0.003     -0.003     +0.001
      +0.002     +0.000     -0.012
vibration  13
      -0.035     +0.115     -0.001
      -0.052     -0.150     -0.004
      +0.179     +0.216     -0.008
      -0.165     -0.081     +0.008
      +0.091     +0.106     +0.004
      +0.102     -0.110     +0.006
      -0.390     +0.451     -0.004
      -0.054     -0.322     -0.081
      -0.056     -0.329     +0.067
      -0.025     +0.016     -0.004
      -0.390     +0.260     +0.019
vibration  14
      +0.039     -0.011     -0.002
      -0.044     +0.053     -0.002
      +0.661     +0.285     +0.013
      -0.512     +0.355     +0.005
      -0.030     -0.058     -0.001
      +0.029     -0.042     +0.007
      +0.131     -0.179     +0.002
      +0.016     +0.080     +0.028
      +0.020     +0.073     -0.026
      -0.008     +0.002     -0.004
      -0.120     +0.053     +0.001
vibration  15
      +0.048     +0.051     -0.022
      +0.036     -0.053     +0.001
      -0.310     -0.124     +0.010
      -0.357     +0.201     +0.018
      -0.006     -0.021     -0.002
      +0.020     +0.045     -0.020
      -0.072     +0.034     +0.005
      -0.012     +0.119     -0.008
      -0.017     +0.118     +0.011
      +0.003     -0.002     +0.053
      -0.453     -0.569     -0.375
vibration  16
      -0.076     -0.075     -0.014
      -0.045     +0.079     -0.000
      +0.433     +0.169     +0.015
      +0.528     -0.293     +0.013
      +0.020     +0.010     -0.001
      +0.041     +0.029     -0.040
      +0.022     +0.005     +0.015
      -0.001     -0.072     -0.016
      -0.009     -0.096     +0.015
      +0.008     +0.008     +0.058
      -0.374     -0.372     -0.312
vibration  17
      -0.002     -0.014     +0.002
      -0.015     +0.015     +0.000
      +0.081     +0.027     +0.001
      +0.087     -0.047     -0.003
      +0.080     -0.101     +0.001
      -0.000     -0.005     +0.004
      -0.422     +0.288     -0.015
      -0.263     +0.453     -0.259
      -0.271     +0.461     +0.260
      -0.001     -0.000     -0.007
      +0.054     +0.063     +0.044
vibration  18
      -0.023     -0.004     -0.002
      +0.007     -0.003     +0.018
      +0.030     +0.023     +0.000
      +0.024     -0.014     -0.030
      -0.021     -0.024     +0.044
      +0.006     -0.001     -0.001
      -0.194     +0.146     -0.595
      +0.137     -0.306     +0.145
      +0.391     +0.495     -0.220
      -0.001     +0.001     +0.001
      -0.010     +0.011     -0.002
vibration  19
      +0.031     +0.004     -0.002
      -0.011     +0.006     +0.011
      -0.035     -0.029     -0.001
      -0.027     +0.017     -0.017
      +0.029     +0.036     +0.030
      -0.005     +0.003     +0.003
      +0.346     -0.212     -0.386
      -0.469     -0.409     -0.334
      -0.323     +0.101     +0.253
      -0.001     -0.002     -0.001
      -0.011     -0.031     -0.012
vibration  20
      -0.435     -0.020     +0.006
      +0.465     -0.082     +0.004
      +0.133     +0.322     -0.007
      -0.173     +0.408     -0.022
      -0.048     +0.015     +0.001
      -0.022     -0.080     -0.133
      +0.173     -0.142     +0.002
      -0.187     +0.136     -0.113
      -0.187     +0.118     +0.107
      +0.044     +0.058     +0.095
      +0.020     +0.225     -0.013
vibration  21
      +0.205     +0.051     +0.037
      -0.164     +0.019     -0.005
      -0.093     -0.112     -0.041
      -0.021     -0.093     -0.072
      +0.016     -0.008     +0.006
      -0.322     -0.329     -0.508
      -0.073     +0.052     -0.029
      +0.044     -0.026     +0.029
      +0.069     -0.014     -0.035
      +0.185     +0.193     +0.368
      +0.299     +0.302     -0.115
vibration  22
      +0.002     -0.001     +0.001
      -0.000     -0.001     +0.000
      -0.015     +0.018     +0.002
      -0.001     +0.005     +0.002
      -0.000     +0.001     -0.001
      -0.019     -0.028     +0.076
      -0.011     -0.013     +0.001
      +0.003     +0.001     -0.004
      +0.008     +0.000     +0.012
      -0.001     -0.001     -0.001
      +0.238     +0.347     -0.903
vibration  23
      -0.000     -0.001     -0.000
      -0.001     -0.001     +0.000
      -0.002     +0.008     -0.000
      +0.016     +0.019     +0.001
      +0.040     -0.030     +0.006
      -0.000     -0.001     +0.001
      +0.257     +0.322     +0.014
      -0.353     +0.009     +0.484
      -0.381     +0.029     -0.567
      -0.000     +0.000     +0.000
      +0.005     +0.007     -0.017
vibration  24
      +0.000     -0.000     +0.000
      +0.000     +0.000     +0.001
      -0.000     +0.000     +0.001
      -0.002     -0.002     -0.001
      -0.005     +0.001     +0.091
      -0.000     -0.000     +0.000
      -0.018     -0.022     +0.023
      +0.461     -0.018     -0.582
      -0.390     +0.033     -0.534
      -0.000     -0.000     -0.000
      +0.002     +0.002     -0.005
vibration  25
      -0.001     +0.002     -0.000
      -0.007     -0.013     -0.000
      +0.013     -0.030     +0.000
      +0.098     +0.144     +0.001
      +0.069     +0.057     +0.003
      +0.000     +0.001     -0.000
      -0.541     -0.717     -0.028
      -0.153     +0.021     +0.231
      -0.142     +0.026     -0.234
      +0.000     -0.000     -0.000
      -0.002     -0.004     +0.008
vibration  26
      +0.028     -0.056     +0.001
      +0.028     +0.044     +0.000
      -0.326     +0.682     -0.010
      -0.345     -0.533     -0.005
      +0.010     +0.007     +0.000
      +0.000     +0.000     -0.001
      -0.071     -0.098     -0.004
      -0.027     +0.005     +0.038
      -0.024     +0.006     -0.037
      +0.000     -0.000     +0.000
      -0.002     -0.009     +0.013
vibration  27
      -0.031     +0.050     -0.001
      +0.042     +0.053     +0.001
      +0.283     -0.583     +0.009
      -0.408     -0.626     -0.006
      +0.009     +0.005     +0.000
      -0.001     -0.001     +0.001
      -0.052     -0.076     -0.003
      -0.029     +0.005     +0.038
      -0.026     +0.006     -0.038
      +0.000     +0.000     +0.000
      +0.003     +0.010     -0.014
