[Molden Format]
[FR-COORD] # Coordinates in bohr
  C    +1.709299    +2.107548    -0.000003 
  C    +0.123121    +0.190151    -0.000003 
  H    +1.031409    +4.011069    -0.000005 
  C    -2.702643    +0.409243    +0.000001 
  O    +0.830676    -2.321299    +0.000001 
  H    +3.721048    +1.846289    +0.000001 
  H    -3.294840    +2.362473    -0.000086 
  H    -3.460706    -0.534463    -1.652313 
  H    -3.460692    -0.534312    +1.652410 
  H    +2.641948    -2.541459    +0.000026 
[FREQ] # Frequencies in cm^-1
  182.5400
  430.9197
  448.3256
  508.3983
  557.8598
  803.4906
  888.0834
 1030.5276
 1071.7617
 1139.9796
 1217.8096
 1290.2340
 1502.9516
 1582.0899
 1615.0805
 1644.4900
 1662.4858
 1870.3418
 3211.3422
 3260.2797
 3301.0314
 3333.0519
 3422.9258
 3893.7586
[FR-NORM-COORD] # Displacements in bohr
vibration  1
      -0.000     -0.000     +0.047
      -0.000     -0.000     -0.012
      -0.000     -0.000     +0.070
      -0.000     +0.000     +0.007
      +0.000     -0.000     -0.045
      -0.000     +0.000     +0.076
      -0.000     -0.000     -0.551
      -0.038     -0.493     +0.310
      +0.038     +0.493     +0.310
      +0.000     +0.000     +0.002
vibration  2
      +0.164     +0.031     +0.000
      +0.020     +0.142     -0.000
      +0.356     +0.100     +0.000
      +0.007     -0.196     +0.000
      -0.165     +0.097     -0.000
      +0.138     -0.184     -0.000
      -0.391     -0.319     -0.000
      +0.218     -0.382     +0.009
      +0.218     -0.382     -0.009
      -0.190     -0.092     +0.000
vibration  3
      +0.000     -0.000     +0.000
      -0.000     +0.000     +0.052
      +0.000     +0.000     -0.072
      -0.000     -0.000     -0.026
      -0.000     +0.000     +0.055
      +0.000     -0.000     +0.051
      -0.000     -0.000     -0.090
      +0.077     -0.034     -0.042
      -0.077     +0.034     -0.042
      +0.000     +0.000     -0.980
vibration  4
      -0.083     +0.161     +0.000
      +0.127     -0.022     -0.000
      -0.486     +0.023     -0.000
      +0.177     -0.009     -0.000
      -0.154     -0.105     +0.000
      -0.034     +0.584     +0.000
      +0.159     -0.017     +0.000
      +0.185     -0.020     +0.003
      +0.185     -0.020     -0.003
      -0.192     -0.418     -0.000
vibration  5
      -0.000     +0.000     -0.076
      +0.000     +0.000     +0.301
      -0.000     +0.000     +0.038
      +0.000     +0.000     -0.017
      -0.000     -0.000     -0.092
      +0.000     +0.000     -0.609
      +0.000     -0.000     -0.274
      +0.413     -0.056     -0.180
      -0.413     +0.056     -0.180
      -0.000     -0.000     +0.187
vibration  6
      -0.000     -0.000     +0.016
      +0.000     -0.000     -0.087
      -0.000     -0.000     +0.780
      +0.000     +0.000     -0.011
      -0.000     -0.000     +0.061
      +0.000     +0.000     -0.608
      -0.000     -0.000     -0.053
      +0.008     +0.002     -0.018
      -0.008     -0.002     -0.018
      +0.000     +0.000     -0.079
vibration  7
      +0.185     +0.173     -0.000
      +0.130     +0.065     -0.000
      +0.024     +0.131     +0.000
      -0.340     +0.033     +0.000
      +0.065     -0.217     +0.000
      +0.223     +0.428     +0.000
      -0.454     +0.008     +0.000
      -0.289     -0.002     -0.004
      -0.289     -0.002     +0.004
      +0.058     -0.344     -0.000
vibration  8
      +0.000     -0.000     -0.166
      +0.000     -0.000     +0.038
      -0.000     -0.000     +0.653
      -0.000     -0.000     +0.025
      -0.000     +0.000     -0.004
      -0.000     +0.000     +0.716
      +0.000     -0.000     -0.052
      +0.114     +0.007     -0.033
      -0.114     -0.007     -0.033
      -0.000     -0.000     +0.026
vibration  9
      -0.100     +0.133     -0.000
      -0.097     +0.106     -0.000
      +0.592     +0.377     +0.000
      +0.088     +0.024     +0.000
      +0.035     -0.181     +0.000
      -0.180     -0.584     +0.000
      -0.009     -0.006     -0.000
      +0.137     -0.028     +0.008
      +0.137     -0.028     -0.008
      +0.067     +0.004     -0.000
vibration  10
      -0.003     +0.073     +0.000
      +0.041     -0.028     -0.000
      +0.250     +0.161     +0.000
      -0.028     -0.138     +0.000
      -0.015     +0.055     +0.000
      -0.027     -0.175     -0.000
      +0.626     +0.072     +0.000
      -0.334     +0.244     -0.069
      -0.334     +0.244     +0.069
      -0.065     -0.311     -0.000
vibration  11
      -0.000     +0.000     -0.039
      +0.000     -0.000     +0.146
      +0.000     +0.000     +0.182
      -0.000     +0.000     -0.160
      +0.000     +0.000     -0.010
      -0.000     -0.000     -0.065
      -0.000     +0.000     +0.332
      -0.604     -0.067     +0.179
      +0.604     +0.067     +0.179
      +0.000     -0.000     -0.019
vibration  12
      +0.089     +0.017     -0.000
      -0.088     +0.050     +0.000
      -0.065     -0.024     +0.000
      +0.033     -0.078     -0.000
      -0.044     -0.079     -0.000
      +0.133     +0.345     -0.000
      +0.328     +0.015     +0.000
      -0.096     +0.114     -0.045
      -0.096     +0.114     +0.045
      +0.082     +0.813     +0.000
vibration  13
      -0.057     +0.087     -0.000
      +0.193     -0.215     +0.000
      +0.387     +0.236     -0.000
      -0.026     +0.045     +0.000
      -0.079     +0.026     -0.000
      -0.060     -0.176     +0.000
      -0.237     -0.023     -0.000
      -0.089     -0.108     +0.102
      -0.089     -0.108     -0.102
      +0.026     +0.734     +0.000
vibration  14
      +0.011     -0.001     +0.000
      -0.007     +0.030     -0.000
      -0.128     -0.053     -0.000
      +0.133     -0.015     -0.000
      +0.003     -0.005     +0.000
      -0.006     -0.092     +0.000
      -0.511     -0.195     +0.000
      -0.518     +0.142     +0.194
      -0.518     +0.142     -0.194
      -0.001     -0.034     -0.000
vibration  15
      +0.000     -0.018     +0.000
      -0.097     -0.061     -0.000
      +0.544     +0.191     +0.000
      +0.037     +0.037     -0.000
      +0.016     +0.021     +0.000
      +0.093     +0.619     -0.000
      +0.067     +0.031     -0.000
      -0.113     -0.226     +0.206
      -0.113     -0.226     -0.206
      -0.022     -0.201     -0.000
vibration  16
      +0.000     +0.000     -0.001
      -0.000     +0.000     +0.023
      -0.000     -0.000     -0.007
      +0.000     +0.000     +0.051
      +0.000     -0.000     -0.002
      -0.000     -0.000     -0.003
      +0.000     -0.000     -0.712
      -0.302     +0.389     -0.053
      +0.302     -0.389     -0.053
      +0.000     +0.000     -0.008
vibration  17
      -0.029     -0.029     -0.000
      -0.005     -0.029     +0.000
      +0.309     +0.093     +0.000
      +0.011     -0.043     +0.000
      +0.002     +0.008     -0.000
      +0.017     +0.288     -0.000
      -0.392     -0.146     -0.000
      +0.161     +0.430     -0.324
      +0.161     +0.430     +0.324
      -0.005     -0.035     -0.000
vibration  18
      +0.240     +0.279     +0.000
      -0.298     -0.332     +0.000
      -0.475     +0.086     -0.000
      +0.042     +0.025     +0.000
      +0.021     +0.050     +0.000
      +0.211     -0.416     +0.000
      -0.214     -0.068     +0.000
      +0.191     +0.083     -0.108
      +0.191     +0.083     +0.108
      -0.038     -0.217     -0.000
vibration  19
      -0.001     -0.001     -0.000
      +0.001     -0.001     +0.000
      -0.004     +0.012     -0.000
      -0.048     -0.014     +0.000
      -0.000     +0.000     -0.000
      +0.014     -0.003     +0.000
      +0.111     -0.405     +0.000
      +0.226     +0.291     +0.524
      +0.226     +0.291     -0.524
      +0.002     +0.001     +0.000
vibration  20
      -0.000     -0.000     -0.000
      +0.000     -0.000     -0.001
      -0.000     +0.000     +0.000
      -0.000     -0.000     -0.091
      +0.000     -0.000     +0.000
      +0.000     -0.000     -0.001
      +0.000     -0.000     -0.021
      +0.265     +0.335     +0.560
      -0.265     -0.335     +0.560
      +0.000     +0.000     +0.000
vibration  21
      +0.000     +0.004     -0.000
      -0.002     -0.003     -0.000
      +0.013     -0.035     +0.000
      +0.005     -0.092     -0.000
      -0.000     +0.001     +0.000
      -0.006     +0.003     -0.000
      -0.259     +0.870     -0.000
      +0.108     +0.115     +0.242
      +0.108     +0.115     -0.242
      +0.000     +0.001     +0.000
vibration  22
      -0.064     -0.035     -0.000
      +0.005     +0.008     -0.000
      -0.170     +0.440     -0.000
      +0.001     -0.002     +0.000
      +0.000     -0.000     +0.000
      +0.871     -0.113     +0.000
      -0.006     +0.028     -0.000
      -0.004     -0.003     -0.003
      -0.004     -0.003     +0.003
      +0.002     -0.004     +0.000
vibration  23
      +0.060     -0.076     +0.000
      +0.004     -0.000     +0.000
      -0.288     +0.834     -0.000
      -0.000     -0.003     +0.000
      -0.000     +0.001     -0.000
      -0.456     +0.046     -0.000
      -0.010     +0.028     -0.000
      +0.002     +0.003     +0.005
      +0.002     +0.003     -0.005
      -0.000     +0.005     -0.000
vibration  24
      -0.001     +0.000     -0.000
      +0.003     +0.002     +0.000
      +0.001     +0.001     -0.000
      -0.001     -0.000     +0.000
      +0.061     -0.010     +0.000
      +0.001     -0.002     +0.000
      +0.000     +0.000     -0.000
      -0.000     +0.001     +0.001
      -0.000     +0.001     -0.001
      -0.988     +0.140     -0.000
