[Molden Format]
[FR-COORD] # Coordinates in bohr
  C    -1.809231    -2.022444    -0.000008 
  C    -0.132186    -0.183974    -0.000003 
  H    -1.224153    -3.956495    -0.000017 
  C    +2.679642    -0.539468    -0.000001 
  O    -0.717399    +2.358772    +0.000007 
  H    -3.805967    -1.664032    -0.000005 
  H    +3.176572    -2.519101    -0.000080 
  H    +3.482584    +0.366378    -1.652312 
  H    +3.482568    +0.366243    +1.652393 
  H    -2.515884    +2.666407    +0.000024 
[FREQ] # Frequencies in cm^-1
  182.5550
  430.9742
  448.3137
  508.3979
  557.8851
  803.4930
  888.0981
 1030.5023
 1071.7584
 1139.9839
 1217.8081
 1290.2336
 1502.9438
 1582.1248
 1615.0533
 1644.5095
 1662.5029
 1870.3321
 3211.3540
 3260.1883
 3300.9107
 3333.0263
 3422.9878
 3893.7261
[FR-NORM-COORD] # Displacements in bohr
vibration  1
      +0.000     +0.000     +0.047
      +0.000     +0.000     -0.012
      +0.000     +0.000     +0.070
      +0.000     -0.000     +0.007
      -0.000     +0.000     -0.045
      +0.000     -0.000     +0.076
      +0.000     +0.000     -0.551
      +0.062     +0.491     +0.310
      -0.062     -0.491     +0.310
      -0.000     -0.000     +0.002
vibration  2
      -0.165     -0.023     +0.000
      -0.027     -0.141     -0.000
      -0.360     -0.083     +0.000
      +0.002     +0.196     +0.000
      +0.161     -0.105     -0.000
      -0.129     +0.191     -0.000
      +0.406     +0.300     -0.000
      -0.200     +0.392     +0.009
      -0.200     +0.392     -0.009
      +0.194     +0.083     +0.000
vibration  3
      -0.000     +0.000     +0.000
      +0.000     -0.000     +0.051
      -0.000     -0.000     -0.072
      +0.000     +0.000     -0.026
      +0.000     -0.000     +0.055
      -0.000     +0.000     +0.052
      +0.000     +0.000     -0.090
      -0.074     +0.038     -0.042
      +0.074     -0.038     -0.042
      -0.000     +0.000     -0.980
vibration  4
      +0.075     -0.164     +0.000
      -0.126     +0.029     -0.000
      +0.484     -0.046     -0.000
      -0.177     +0.017     +0.000
      +0.159     +0.098     +0.000
      +0.006     -0.585     +0.000
      -0.158     +0.024     +0.000
      -0.184     +0.029     +0.003
      -0.184     +0.029     -0.003
      +0.212     +0.408     -0.000
vibration  5
      +0.000     -0.000     -0.076
      -0.000     -0.000     +0.301
      +0.000     -0.000     +0.038
      -0.000     -0.000     -0.017
      +0.000     +0.000     -0.092
      -0.000     -0.000     -0.609
      -0.000     +0.000     -0.274
      -0.410     +0.076     -0.180
      +0.410     -0.076     -0.180
      +0.000     +0.000     +0.186
vibration  6
      +0.000     -0.000     +0.016
      -0.000     +0.000     -0.087
      +0.000     -0.000     +0.780
      +0.000     -0.000     -0.011
      +0.000     +0.000     +0.061
      -0.000     +0.000     -0.608
      +0.000     +0.000     -0.053
      -0.008     -0.001     -0.018
      +0.008     +0.001     -0.018
      -0.000     -0.000     -0.079
vibration  7
      -0.193     -0.164     -0.000
      -0.133     -0.059     -0.000
      -0.030     -0.130     -0.000
      +0.338     -0.049     +0.000
      -0.054     +0.220     +0.000
      -0.243     -0.417     +0.000
      +0.453     -0.030     +0.000
      +0.289     -0.012     -0.004
      +0.289     -0.012     +0.004
      -0.042     +0.347     +0.000
vibration  8
      -0.000     +0.000     -0.166
      -0.000     +0.000     +0.038
      +0.000     -0.000     +0.653
      +0.000     +0.000     +0.025
      +0.000     -0.000     -0.004
      +0.000     -0.000     +0.716
      -0.000     +0.000     -0.052
      -0.114     -0.002     -0.033
      +0.114     +0.002     -0.033
      +0.000     +0.000     +0.026
vibration  9
      +0.093     -0.137     -0.000
      +0.091     -0.111     -0.000
      -0.609     -0.347     +0.000
      -0.089     -0.020     +0.000
      -0.026     +0.182     +0.000
      +0.208     +0.575     +0.000
      +0.009     +0.005     -0.000
      -0.135     +0.035     +0.008
      -0.135     +0.035     -0.008
      -0.067     -0.000     +0.000
vibration  10
      +0.000     +0.073     +0.000
      +0.040     -0.030     +0.000
      +0.258     +0.149     -0.000
      -0.035     -0.136     -0.000
      -0.012     +0.056     -0.000
      -0.036     -0.173     +0.000
      +0.629     +0.041     -0.000
      -0.321     +0.259     +0.069
      -0.321     +0.259     -0.069
      -0.080     -0.308     +0.000
vibration  11
      +0.000     -0.000     -0.039
      -0.000     +0.000     +0.146
      -0.000     -0.000     +0.182
      +0.000     +0.000     -0.160
      -0.000     -0.000     -0.010
      +0.000     +0.000     -0.065
      +0.000     -0.000     +0.332
      +0.607     +0.038     +0.179
      -0.607     -0.038     +0.179
      +0.000     +0.000     -0.019
vibration  12
      -0.090     -0.013     -0.000
      +0.086     -0.054     +0.000
      +0.066     +0.020     +0.000
      -0.030     +0.080     -0.000
      +0.048     +0.077     -0.000
      -0.150     -0.338     -0.000
      -0.329     +0.001     +0.000
      +0.090     -0.119     -0.045
      +0.090     -0.119     +0.045
      -0.121     -0.808     +0.000
vibration  13
      +0.052     -0.090     -0.000
      -0.182     +0.224     +0.000
      -0.398     -0.218     -0.000
      +0.024     -0.047     +0.000
      +0.077     -0.030     -0.000
      +0.068     +0.172     +0.000
      +0.238     +0.011     -0.000
      +0.094     +0.104     +0.102
      +0.094     +0.104     -0.102
      -0.061     -0.731     -0.000
vibration  14
      -0.011     +0.001     +0.000
      +0.005     -0.030     -0.000
      +0.131     +0.047     +0.000
      -0.132     +0.021     -0.000
      -0.003     +0.005     +0.000
      +0.011     +0.092     +0.000
      +0.520     +0.170     +0.000
      +0.511     -0.167     +0.194
      +0.511     -0.167     -0.194
      +0.003     +0.034     +0.000
vibration  15
      -0.001     -0.018     -0.000
      -0.100     -0.057     -0.000
      +0.552     +0.164     +0.000
      +0.039     +0.035     +0.000
      +0.017     +0.020     -0.000
      +0.123     +0.614     +0.000
      +0.068     +0.027     +0.000
      -0.124     -0.220     -0.206
      -0.124     -0.220     +0.206
      -0.031     -0.200     +0.000
vibration  16
      -0.000     -0.000     -0.001
      -0.000     -0.000     +0.023
      +0.000     +0.000     -0.007
      -0.000     -0.000     +0.051
      +0.000     +0.000     -0.002
      +0.000     +0.000     -0.003
      -0.000     +0.000     -0.712
      +0.283     -0.403     -0.053
      -0.283     +0.403     -0.053
      -0.000     -0.000     -0.008
vibration  17
      +0.031     +0.027     -0.000
      +0.006     +0.028     +0.000
      -0.313     -0.078     +0.000
      -0.009     +0.043     +0.000
      -0.002     -0.008     -0.000
      -0.031     -0.287     -0.000
      +0.399     +0.127     -0.000
      -0.181     -0.422     -0.324
      -0.181     -0.422     +0.324
      +0.007     +0.034     -0.000
vibration  18
      -0.253     -0.267     -0.000
      +0.314     +0.317     +0.000
      +0.471     -0.109     +0.000
      -0.044     -0.023     -0.000
      -0.023     -0.049     +0.000
      -0.190     +0.426     +0.000
      +0.217     +0.058     +0.000
      -0.195     -0.074     -0.108
      -0.195     -0.074     +0.108
      +0.048     +0.215     -0.000
vibration  19
      +0.001     +0.001     -0.000
      -0.001     +0.001     +0.000
      +0.003     -0.012     -0.000
      +0.049     +0.012     +0.000
      +0.000     -0.000     +0.000
      -0.013     +0.004     +0.000
      -0.092     +0.411     +0.000
      -0.239     -0.280     +0.524
      -0.239     -0.280     -0.524
      -0.002     -0.001     +0.000
vibration  20
      +0.000     +0.000     -0.000
      -0.000     +0.000     -0.001
      +0.000     -0.000     +0.000
      +0.000     +0.000     -0.091
      -0.000     -0.000     +0.000
      -0.000     +0.000     -0.001
      -0.000     +0.000     -0.021
      -0.280     -0.322     +0.560
      +0.280     +0.322     +0.560
      +0.000     -0.000     +0.000
vibration  21
      -0.000     -0.004     -0.000
      +0.002     +0.003     +0.000
      -0.011     +0.036     +0.000
      -0.001     +0.092     +0.000
      +0.000     -0.001     +0.000
      +0.006     -0.003     -0.000
      +0.217     -0.881     -0.000
      -0.114     -0.110     +0.242
      -0.114     -0.110     -0.242
      -0.000     -0.001     +0.000
vibration  22
      +0.066     +0.032     +0.000
      -0.005     -0.008     -0.000
      +0.149     -0.447     -0.000
      -0.001     +0.002     +0.000
      -0.000     +0.000     +0.000
      -0.865     +0.156     +0.000
      +0.005     -0.028     -0.000
      +0.004     +0.002     -0.003
      +0.004     +0.002     +0.003
      -0.001     +0.004     -0.000
vibration  23
      -0.056     +0.078     +0.000
      -0.004     +0.000     +0.000
      +0.248     -0.848     -0.000
      +0.000     +0.003     +0.000
      +0.000     -0.001     +0.000
      +0.453     -0.068     -0.000
      +0.009     -0.029     -0.000
      -0.002     -0.003     +0.005
      -0.002     -0.003     -0.005
      -0.000     -0.005     -0.000
vibration  24
      +0.001     -0.000     +0.000
      -0.003     -0.002     +0.000
      -0.001     -0.001     -0.000
      +0.001     +0.000     +0.000
      -0.061     +0.013     +0.000
      -0.000     +0.002     +0.000
      -0.001     -0.000     -0.000
      -0.000     -0.001     +0.001
      -0.000     -0.001     -0.001
      +0.980     -0.188     -0.000
