[Molden Format]
[FR-COORD] # Coordinates in bohr
  C    -1.801243    -2.020936    -0.008085 
  C    -0.131649    -0.174986    -0.000572 
  H    -1.202971    -3.952587    -0.003611 
  C    +2.697425    -0.544708    +0.014564 
  O    -0.740042    +2.362307    -0.005518 
  H    -3.799916    -1.674703    -0.018836 
  H    +3.299258    -1.583948    -1.642837 
  H    +3.605365    +1.282682    +0.018073 
  H    +3.281786    -1.581650    +1.679637 
  H    -2.541680    +2.650888    -0.015195 
[FREQ] # Frequencies in cm^-1
 -185.5540
  437.8840
  461.8772
  515.0553
  583.2438
  800.1635
  879.0350
 1023.5960
 1067.2776
 1137.0839
 1195.7012
 1287.3231
 1503.7373
 1571.3113
 1616.6450
 1651.5217
 1664.0754
 1863.7288
 3216.9642
 3268.7125
 3308.8082
 3331.0459
 3415.7806
 3893.5552
[FR-NORM-COORD] # Displacements in bohr
vibration  1
      +0.000     -0.000     -0.041
      +0.000     -0.000     -0.015
      +0.000     -0.000     -0.091
      +0.000     -0.000     -0.003
      -0.000     +0.000     +0.045
      +0.000     -0.000     -0.011
      -0.053     -0.497     +0.293
      +0.003     -0.000     -0.559
      +0.050     +0.497     +0.292
      -0.000     +0.000     +0.074
vibration  2
      -0.176     +0.013     -0.001
      +0.004     -0.140     +0.000
      -0.463     -0.073     -0.002
      +0.044     +0.184     +0.000
      +0.115     -0.118     +0.001
      -0.128     +0.312     -0.001
      +0.240     +0.305     -0.004
      -0.318     +0.363     -0.002
      +0.240     +0.305     +0.006
      +0.135     -0.006     +0.001
vibration  3
      +0.000     +0.000     -0.005
      -0.000     +0.000     +0.056
      +0.000     -0.000     -0.089
      +0.000     -0.000     -0.025
      -0.000     +0.000     +0.057
      -0.000     +0.000     +0.052
      -0.082     -0.005     -0.054
      +0.000     -0.000     -0.088
      +0.083     +0.005     -0.053
      +0.005     -0.001     -0.977
vibration  4
      +0.035     -0.173     +0.000
      -0.134     -0.006     -0.001
      +0.407     -0.065     +0.002
      -0.177     +0.070     -0.001
      +0.200     +0.073     +0.001
      -0.024     -0.550     +0.000
      -0.125     +0.103     -0.002
      -0.272     +0.113     -0.002
      -0.125     +0.103     +0.000
      +0.258     +0.437     +0.001
vibration  5
      +0.000     -0.000     -0.083
      -0.002     +0.000     +0.318
      +0.000     -0.000     -0.010
      +0.000     -0.000     -0.025
      +0.000     -0.000     -0.093
      +0.003     -0.000     -0.630
      -0.390     +0.021     -0.182
      +0.001     -0.000     -0.257
      +0.392     -0.021     -0.178
      -0.001     +0.000     +0.220
vibration  6
      +0.000     -0.000     -0.016
      -0.000     +0.000     +0.074
      +0.004     -0.001     -0.753
      -0.000     +0.000     +0.022
      +0.000     -0.000     -0.061
      -0.003     +0.000     +0.643
      -0.008     +0.012     +0.009
      -0.000     +0.000     +0.023
      +0.008     -0.012     +0.009
      -0.000     +0.000     +0.090
vibration  7
      -0.185     -0.159     -0.001
      -0.134     -0.056     -0.001
      -0.012     -0.119     +0.000
      +0.338     -0.068     +0.002
      -0.059     +0.225     -0.000
      -0.234     -0.421     -0.001
      +0.415     -0.007     -0.012
      +0.181     +0.017     +0.001
      +0.415     -0.007     +0.016
      -0.048     +0.347     -0.001
vibration  8
      -0.001     +0.000     +0.165
      +0.000     -0.000     -0.036
      +0.004     -0.000     -0.683
      +0.000     -0.000     -0.027
      -0.000     -0.000     +0.003
      +0.004     -0.000     -0.679
      +0.132     -0.028     +0.039
      -0.000     +0.000     +0.057
      -0.133     +0.028     +0.038
      +0.000     -0.000     -0.029
vibration  9
      +0.098     -0.135     +0.001
      +0.095     -0.111     +0.001
      -0.599     -0.346     -0.003
      -0.097     -0.028     -0.000
      -0.029     +0.184     -0.000
      +0.208     +0.570     +0.001
      -0.006     +0.033     -0.005
      -0.226     +0.035     -0.001
      -0.006     +0.033     +0.005
      -0.066     +0.010     -0.000
vibration  10
      +0.004     +0.082     -0.000
      +0.040     -0.028     +0.000
      +0.279     +0.166     +0.001
      -0.046     -0.132     -0.000
      -0.011     +0.038     -0.000
      -0.033     -0.179     -0.000
      +0.336     +0.192     -0.059
      -0.655     +0.183     -0.004
      +0.335     +0.192     +0.062
      -0.059     -0.243     -0.000
vibration  11
      +0.000     -0.000     -0.042
      -0.001     +0.000     +0.141
      -0.001     +0.000     +0.142
      +0.001     -0.000     -0.155
      +0.000     -0.000     -0.010
      -0.000     +0.000     +0.014
      +0.593     -0.165     +0.181
      -0.002     +0.000     +0.332
      -0.595     +0.165     +0.175
      +0.000     -0.000     -0.024
vibration  12
      -0.092     -0.013     -0.000
      +0.091     -0.058     +0.001
      +0.071     +0.023     +0.000
      -0.030     +0.071     -0.000
      +0.044     +0.086     +0.000
      -0.151     -0.348     -0.001
      -0.169     -0.077     +0.040
      +0.208     -0.055     +0.001
      -0.169     -0.077     -0.042
      -0.121     -0.826     -0.000
vibration  13
      +0.053     -0.085     +0.000
      -0.181     +0.214     -0.001
      -0.369     -0.205     -0.002
      +0.022     -0.054     +0.000
      +0.077     -0.027     +0.000
      +0.069     +0.178     +0.000
      +0.189     +0.165     -0.074
      +0.016     -0.030     +0.000
      +0.188     +0.165     +0.076
      -0.055     -0.739     +0.000
vibration  14
      -0.008     +0.002     -0.000
      +0.004     -0.018     +0.000
      +0.078     +0.031     +0.000
      -0.128     +0.027     -0.001
      -0.004     +0.001     -0.000
      +0.003     +0.045     -0.000
      +0.526     -0.002     +0.232
      +0.488     -0.270     +0.003
      +0.528     -0.003     -0.227
      +0.005     +0.048     -0.000
vibration  15
      -0.008     -0.023     -0.000
      -0.097     -0.067     -0.000
      +0.615     +0.184     +0.003
      +0.034     +0.024     +0.000
      +0.016     +0.024     +0.000
      +0.124     +0.667     +0.000
      -0.031     -0.151     +0.080
      -0.059     +0.061     -0.000
      -0.030     -0.151     -0.081
      -0.031     -0.205     -0.000
vibration  16
      +0.028     +0.015     +0.000
      -0.016     +0.034     -0.000
      -0.205     -0.057     -0.001
      +0.014     +0.044     +0.000
      +0.003     -0.006     +0.000
      -0.005     -0.156     +0.000
      +0.105     -0.489     +0.354
      -0.360     +0.211     -0.002
      +0.108     -0.490     -0.352
      -0.000     -0.031     +0.000
vibration  17
      +0.000     +0.000     -0.003
      -0.000     +0.000     +0.019
      -0.000     +0.000     +0.012
      -0.000     +0.000     +0.052
      -0.000     -0.000     +0.000
      +0.000     -0.000     -0.010
      +0.360     +0.330     -0.051
      +0.004     -0.001     -0.717
      -0.360     -0.330     -0.054
      -0.000     +0.000     +0.001
vibration  18
      -0.255     -0.274     -0.001
      +0.311     +0.324     +0.001
      +0.492     -0.105     +0.003
      -0.040     -0.027     -0.000
      -0.022     -0.050     -0.000
      -0.192     +0.447     -0.001
      +0.052     -0.070     +0.065
      -0.288     +0.102     -0.002
      +0.053     -0.070     -0.065
      +0.046     +0.209     +0.000
vibration  19
      -0.001     -0.001     -0.000
      +0.001     +0.000     +0.000
      -0.004     +0.011     -0.000
      -0.045     +0.024     -0.000
      +0.000     -0.000     -0.000
      +0.013     -0.004     +0.000
      +0.177     -0.324     -0.531
      +0.168     +0.363     +0.001
      +0.171     -0.324     +0.534
      +0.001     +0.001     +0.000
vibration  20
      +0.000     +0.000     -0.000
      -0.000     +0.000     +0.001
      -0.000     -0.000     +0.002
      -0.000     +0.000     +0.092
      -0.000     +0.000     +0.000
      -0.000     +0.000     -0.001
      +0.204     -0.370     -0.563
      -0.000     -0.000     +0.024
      -0.198     +0.369     -0.565
      -0.000     +0.000     +0.002
vibration  21
      -0.000     +0.001     -0.000
      +0.000     -0.002     +0.000
      +0.003     -0.006     +0.000
      -0.021     -0.088     -0.000
      +0.000     +0.000     +0.000
      +0.003     +0.000     +0.000
      -0.083     +0.123     +0.229
      +0.408     +0.823     +0.002
      -0.080     +0.122     -0.230
      -0.001     +0.002     -0.000
vibration  22
      +0.063     +0.036     +0.000
      -0.005     -0.008     -0.000
      +0.162     -0.487     +0.001
      -0.001     +0.001     -0.000
      -0.000     -0.000     +0.000
      -0.842     +0.147     -0.005
      +0.003     -0.006     -0.010
      +0.005     +0.004     +0.000
      +0.003     -0.006     +0.010
      -0.001     +0.004     -0.000
vibration  23
      -0.060     +0.076     -0.000
      -0.004     +0.001     -0.000
      +0.244     -0.824     +0.002
      +0.000     +0.001     +0.000
      +0.000     -0.001     +0.000
      +0.496     -0.073     +0.003
      +0.003     -0.002     -0.004
      -0.002     -0.005     -0.000
      +0.003     -0.002     +0.004
      -0.000     -0.005     +0.000
vibration  24
      +0.001     -0.000     +0.000
      -0.003     -0.002     -0.000
      -0.001     -0.001     -0.000
      +0.001     -0.000     +0.000
      -0.061     +0.013     -0.000
      -0.000     +0.002     +0.000
      -0.001     +0.001     +0.000
      +0.002     +0.001     +0.000
      -0.001     +0.001     -0.000
      +0.982     -0.177     +0.005
