[Molden Format]
[FR-COORD] # Coordinates in bohr
  C    +1.472965    -0.924631    +0.000000 
  C    +2.846668    +1.146583    +0.000000 
  H    +2.333322    -2.756256    +0.000000 
  H    +4.863322    +0.988271    +0.000000 
  H    +2.085574    +3.019471    +0.000000 
  O    -1.100659    -1.203166    +0.000000 
  C    -2.809304    +0.916903    +0.000000 
  H    -1.839696    +2.710230    -0.000000 
  H    -3.978747    +0.786620    -1.667708 
  H    -3.978747    +0.786620    +1.667708 
[FREQ] # Frequencies in cm^-1
 -232.9770
  156.3592
  351.1538
  636.3403
  768.9203
  914.2166
 1040.2922
 1126.4887
 1158.8125
 1258.1201
 1298.0250
 1355.4729
 1499.5574
 1588.0590
 1648.7111
 1674.1675
 1688.6324
 1842.9715
 3227.9475
 3289.6403
 3305.6882
 3355.6032
 3383.8728
 3432.6089
[FR-NORM-COORD] # Displacements in bohr
vibration  1
      +0.000     +0.000     +0.005
      +0.000     -0.000     -0.050
      -0.000     +0.000     +0.056
      +0.000     -0.000     -0.036
      +0.000     +0.000     -0.117
      -0.000     +0.000     +0.044
      -0.000     -0.000     -0.004
      +0.000     +0.000     +0.570
      +0.370     +0.323     -0.291
      -0.370     -0.323     -0.291
vibration  2
      -0.000     -0.000     -0.157
      -0.000     +0.000     +0.067
      -0.000     -0.000     -0.615
      -0.000     +0.000     -0.259
      -0.000     -0.000     +0.582
      -0.000     -0.000     +0.191
      +0.000     +0.000     -0.097
      +0.000     -0.000     -0.169
      +0.112     -0.122     -0.169
      -0.112     +0.122     -0.169
vibration  3
      +0.024     +0.063     -0.000
      +0.239     -0.078     +0.000
      -0.103     +0.000     -0.000
      +0.222     -0.310     -0.000
      +0.417     +0.001     +0.000
      +0.020     +0.134     +0.000
      -0.253     -0.096     -0.000
      -0.493     +0.047     -0.000
      -0.241     -0.272     +0.004
      -0.241     -0.272     -0.004
vibration  4
      -0.117     +0.182     +0.000
      +0.109     +0.071     +0.000
      -0.003     +0.234     -0.000
      +0.078     -0.447     -0.000
      +0.617     +0.277     +0.000
      -0.105     -0.165     -0.000
      +0.055     -0.044     +0.000
      +0.321     -0.188     -0.000
      +0.049     +0.126     -0.007
      +0.049     +0.126     +0.007
vibration  5
      -0.000     -0.000     +0.183
      -0.000     -0.000     -0.036
      -0.000     -0.000     -0.158
      -0.000     -0.000     -0.843
      +0.000     -0.000     +0.471
      +0.000     +0.000     -0.073
      +0.000     -0.000     -0.004
      +0.000     +0.000     +0.024
      +0.013     +0.028     -0.015
      -0.013     -0.028     -0.015
vibration  6
      +0.227     -0.058     +0.000
      +0.161     +0.064     -0.000
      +0.251     -0.054     -0.000
      +0.203     +0.551     -0.000
      -0.239     -0.089     +0.000
      -0.121     -0.218     -0.000
      -0.214     +0.192     +0.000
      +0.033     +0.055     -0.000
      -0.200     +0.324     -0.017
      -0.200     +0.324     +0.017
vibration  7
      +0.000     -0.000     -0.030
      -0.000     +0.000     +0.158
      +0.000     +0.000     -0.191
      -0.000     -0.000     -0.567
      +0.000     +0.000     -0.785
      +0.000     -0.000     +0.003
      +0.000     +0.000     -0.003
      -0.000     +0.000     +0.003
      -0.009     -0.002     +0.003
      +0.009     +0.002     +0.003
vibration  8
      +0.001     -0.032     +0.000
      -0.136     -0.001     -0.000
      +0.382     +0.135     -0.000
      -0.177     -0.596     +0.000
      +0.385     +0.198     -0.000
      +0.154     -0.095     -0.000
      -0.091     +0.177     +0.000
      -0.264     +0.270     -0.000
      -0.039     -0.110     -0.003
      -0.039     -0.110     +0.003
vibration  9
      +0.000     -0.000     -0.124
      -0.000     +0.000     +0.052
      +0.000     +0.000     +0.866
      -0.000     -0.000     -0.385
      +0.000     +0.000     +0.252
      +0.000     -0.000     +0.013
      -0.000     +0.000     -0.015
      -0.000     +0.000     +0.037
      -0.066     +0.061     +0.027
      +0.066     -0.061     +0.027
vibration  10
      +0.000     -0.000     +0.025
      +0.000     +0.000     -0.007
      +0.000     +0.000     -0.127
      +0.000     +0.000     +0.040
      +0.000     +0.000     -0.007
      -0.000     -0.000     +0.051
      +0.000     +0.000     -0.130
      -0.000     +0.000     +0.262
      -0.486     +0.423     +0.177
      +0.486     -0.423     +0.177
vibration  11
      -0.094     +0.064     -0.000
      +0.077     -0.027     +0.000
      -0.154     +0.039     +0.000
      +0.094     +0.261     -0.000
      -0.224     -0.139     +0.000
      -0.021     -0.080     -0.000
      +0.093     +0.096     +0.000
      -0.469     +0.400     -0.000
      +0.098     -0.436     +0.046
      +0.098     -0.436     -0.046
vibration  12
      +0.178     -0.147     -0.000
      -0.043     +0.128     +0.000
      +0.203     -0.143     +0.000
      -0.047     -0.236     +0.000
      +0.477     +0.339     +0.000
      -0.215     +0.058     -0.000
      +0.129     -0.032     +0.000
      -0.398     +0.270     -0.000
      +0.010     -0.276     +0.088
      +0.010     -0.276     -0.088
vibration  13
      +0.009     +0.059     -0.000
      +0.004     -0.088     -0.000
      +0.807     +0.435     -0.000
      -0.009     -0.126     -0.000
      -0.274     -0.214     +0.000
      -0.058     +0.033     -0.000
      +0.026     -0.029     +0.000
      -0.057     +0.019     -0.000
      -0.004     +0.030     +0.013
      -0.004     +0.030     -0.013
vibration  14
      -0.078     -0.071     -0.000
      +0.006     -0.018     +0.000
      +0.331     +0.105     -0.000
      +0.061     +0.552     +0.000
      +0.418     +0.169     -0.000
      -0.002     +0.031     -0.000
      -0.045     +0.040     -0.000
      +0.348     -0.194     +0.000
      +0.130     -0.270     -0.084
      +0.130     -0.270     +0.084
vibration  15
      +0.062     +0.022     -0.000
      +0.008     +0.034     +0.000
      -0.108     -0.057     +0.000
      -0.033     -0.423     +0.000
      -0.341     -0.120     -0.000
      -0.037     +0.012     -0.000
      -0.062     +0.051     +0.000
      +0.368     -0.199     -0.000
      +0.304     -0.329     -0.205
      +0.304     -0.329     +0.205
vibration  16
      -0.000     -0.000     -0.001
      +0.000     +0.000     -0.001
      +0.000     +0.000     +0.003
      +0.000     +0.000     -0.000
      +0.000     +0.000     +0.009
      -0.000     -0.000     -0.007
      -0.000     -0.000     -0.063
      -0.000     +0.000     +0.728
      -0.091     -0.468     +0.073
      +0.091     +0.468     +0.073
vibration  17
      -0.014     -0.012     +0.000
      +0.001     -0.001     +0.000
      +0.025     +0.004     -0.000
      +0.011     +0.086     -0.000
      +0.089     +0.040     -0.000
      -0.003     -0.005     +0.000
      -0.039     -0.049     +0.000
      -0.378     +0.179     -0.000
      +0.461     +0.248     -0.357
      +0.461     +0.248     +0.357
vibration  18
      +0.258     +0.272     -0.000
      -0.199     -0.277     +0.000
      -0.412     +0.033     +0.000
      -0.186     +0.434     -0.000
      +0.555     -0.024     +0.000
      -0.051     -0.021     +0.000
      -0.003     +0.015     +0.000
      +0.056     -0.004     -0.000
      +0.063     -0.109     -0.040
      +0.063     -0.109     +0.040
vibration  19
      -0.002     -0.002     +0.000
      +0.000     +0.003     -0.000
      -0.006     +0.019     +0.000
      -0.007     +0.002     +0.000
      +0.008     -0.030     -0.000
      +0.001     -0.001     -0.000
      +0.038     -0.024     +0.000
      +0.241     +0.406     -0.000
      -0.346     -0.053     -0.514
      -0.346     -0.053     +0.514
vibration  20
      -0.000     -0.000     -0.000
      +0.000     +0.000     +0.000
      +0.000     -0.000     -0.001
      -0.000     +0.000     -0.000
      +0.000     -0.000     -0.000
      -0.000     +0.000     +0.001
      -0.000     -0.000     -0.094
      +0.000     +0.000     -0.027
      +0.407     +0.064     +0.571
      -0.407     -0.064     +0.571
vibration  21
      +0.002     +0.000     -0.000
      -0.001     -0.011     +0.000
      -0.008     +0.014     -0.000
      +0.053     -0.007     -0.000
      -0.044     +0.117     +0.000
      -0.000     -0.000     +0.000
      +0.065     +0.066     -0.000
      -0.437     -0.754     +0.000
      -0.169     -0.011     -0.279
      -0.169     -0.011     +0.279
vibration  22
      -0.015     +0.022     -0.000
      +0.045     +0.045     +0.000
      +0.146     -0.317     -0.000
      -0.718     +0.064     +0.000
      +0.230     -0.536     +0.000
      -0.001     -0.000     -0.000
      +0.007     +0.007     -0.000
      -0.057     -0.093     +0.000
      -0.013     -0.000     -0.023
      -0.013     -0.000     +0.023
vibration  23
      +0.026     -0.078     -0.000
      +0.004     +0.036     +0.000
      -0.377     +0.829     +0.000
      -0.131     +0.012     +0.000
      +0.147     -0.349     +0.000
      +0.001     +0.000     -0.000
      -0.000     +0.004     -0.000
      -0.027     -0.044     +0.000
      +0.004     +0.000     +0.004
      +0.004     +0.000     -0.004
vibration  24
      -0.008     +0.017     -0.000
      -0.077     +0.057     +0.000
      +0.082     -0.185     -0.000
      +0.669     -0.039     -0.000
      +0.260     -0.655     +0.000
      +0.001     +0.000     -0.000
      +0.003     +0.004     -0.000
      -0.030     -0.050     +0.000
      -0.005     -0.001     -0.009
      -0.005     -0.001     +0.009
