[Molden Format]
[FR-COORD] # Coordinates in bohr
  C    -1.359725    -0.876851    +0.339583 
  C    -3.020412    +0.925774    -0.025596 
  H    -1.770644    -2.518892    +1.455747 
  H    -4.862716    +0.810366    +0.804276 
  H    -2.605550    +2.540476    -1.176816 
  O    +1.049637    -0.900522    -0.713579 
  C    +2.904007    +0.782034    +0.385573 
  H    +3.275403    +0.292324    +2.338184 
  H    +4.601002    +0.546713    -0.716737 
  H    +2.280029    +2.726881    +0.290822 
[FREQ] # Frequencies in cm^-1
 -129.0817
  165.1807
  316.5857
  545.8712
  822.5828
  922.5598
 1087.7612
 1124.0429
 1144.1996
 1260.5333
 1278.5618
 1307.9103
 1481.6681
 1579.1698
 1633.1113
 1673.9426
 1688.9479
 1853.5104
 3201.5232
 3257.3302
 3310.1919
 3334.3816
 3354.9716
 3422.6348
[FR-NORM-COORD] # Displacements in bohr
vibration  1
      +0.043     +0.079     +0.114
      -0.086     -0.083     -0.082
      +0.244     +0.261     +0.459
      -0.024     -0.031     +0.065
      -0.239     -0.275     -0.406
      -0.039     +0.111     -0.090
      +0.073     -0.102     +0.056
      +0.135     -0.358     -0.019
      +0.022     -0.021     -0.040
      +0.124     -0.072     +0.325
vibration  2
      -0.016     -0.007     +0.002
      +0.026     +0.025     -0.036
      -0.072     -0.007     -0.019
      +0.003     +0.060     -0.083
      +0.086     +0.020     -0.022
      +0.003     -0.040     +0.054
      -0.011     +0.020     -0.017
      +0.433     -0.278     -0.177
      -0.193     +0.443     -0.388
      -0.290     -0.047     +0.448
vibration  3
      -0.070     +0.023     -0.054
      -0.160     -0.046     -0.019
      -0.162     -0.140     -0.325
      -0.239     -0.321     -0.228
      -0.185     +0.154     +0.254
      +0.003     +0.074     +0.144
      +0.206     -0.033     -0.062
      +0.363     -0.000     -0.084
      +0.077     -0.230     -0.221
      +0.389     +0.026     -0.079
vibration  4
      +0.055     +0.164     -0.115
      -0.140     +0.045     +0.044
      +0.045     +0.281     +0.062
      +0.034     -0.291     +0.402
      -0.674     +0.149     +0.002
      +0.118     -0.164     -0.006
      -0.007     -0.010     +0.028
      -0.032     +0.003     +0.035
      +0.046     +0.162     +0.074
      -0.203     -0.075     +0.031
vibration  5
      -0.097     -0.110     -0.133
      -0.014     +0.007     +0.021
      +0.008     +0.049     +0.145
      +0.229     +0.477     +0.624
      -0.068     -0.253     -0.366
      -0.005     +0.013     +0.036
      +0.078     +0.055     +0.033
      +0.147     +0.066     +0.021
      +0.015     -0.045     -0.046
      +0.134     +0.069     +0.004
vibration  6
      +0.163     +0.033     -0.140
      +0.152     -0.038     -0.041
      +0.117     +0.101     -0.050
      +0.368     -0.373     +0.386
      -0.336     +0.060     -0.062
      -0.088     +0.137     +0.184
      -0.185     -0.123     -0.061
      -0.020     -0.083     -0.075
      -0.303     -0.307     -0.196
      +0.015     -0.052     -0.050
vibration  7
      -0.001     -0.003     +0.013
      -0.038     -0.066     -0.118
      +0.078     +0.157     +0.280
      +0.161     +0.194     +0.361
      +0.237     +0.422     +0.665
      -0.005     -0.002     -0.006
      +0.003     +0.005     +0.003
      +0.007     +0.005     +0.002
      +0.001     +0.004     +0.001
      +0.015     +0.010     +0.002
vibration  8
      -0.021     -0.061     -0.059
      +0.124     +0.032     +0.010
      -0.102     +0.322     +0.491
      +0.049     -0.596     -0.235
      -0.247     +0.177     +0.098
      -0.147     -0.061     -0.044
      +0.098     +0.108     +0.076
      +0.129     +0.066     +0.051
      -0.008     -0.050     -0.047
      +0.116     +0.104     +0.021
vibration  9
      -0.037     -0.044     -0.121
      -0.040     +0.024     +0.089
      +0.398     +0.329     +0.584
      -0.272     +0.061     -0.428
      +0.254     -0.041     +0.091
      +0.081     +0.041     +0.038
      -0.055     -0.059     -0.031
      +0.005     +0.010     -0.020
      -0.046     -0.020     -0.029
      -0.048     -0.053     -0.046
vibration  10
      -0.004     -0.004     -0.004
      -0.000     +0.001     +0.004
      -0.007     +0.028     +0.045
      -0.007     -0.008     -0.013
      +0.002     -0.005     -0.004
      +0.018     -0.038     +0.037
      -0.031     +0.089     -0.088
      -0.392     -0.550     -0.179
      +0.121     -0.140     +0.194
      +0.429     +0.262     +0.405
vibration  11
      -0.138     -0.122     +0.076
      +0.060     +0.072     -0.049
      -0.312     +0.005     +0.212
      +0.141     -0.287     +0.115
      -0.422     +0.205     -0.015
      +0.095     +0.094     +0.015
      +0.014     -0.085     -0.095
      -0.232     -0.007     -0.020
      +0.318     +0.363     +0.260
      -0.240     -0.152     +0.010
vibration  12
      +0.063     +0.050     -0.076
      -0.007     -0.048     +0.027
      +0.134     +0.049     -0.055
      -0.023     +0.092     -0.014
      +0.234     -0.125     -0.000
      -0.135     -0.004     +0.065
      +0.124     -0.019     -0.064
      -0.369     -0.026     +0.027
      +0.433     +0.461     +0.316
      -0.405     -0.187     +0.048
vibration  13
      +0.001     -0.063     +0.030
      -0.006     +0.082     -0.043
      +0.817     -0.348     -0.096
      -0.030     +0.107     -0.066
      -0.347     +0.217     +0.010
      -0.036     -0.021     +0.013
      +0.013     +0.009     +0.003
      +0.010     +0.013     +0.009
      +0.026     +0.007     +0.024
      +0.003     +0.007     +0.028
vibration  14
      -0.099     +0.059     +0.003
      +0.002     +0.021     -0.013
      +0.325     -0.075     -0.069
      +0.174     -0.558     +0.261
      +0.482     -0.172     -0.086
      +0.004     -0.016     -0.004
      -0.036     -0.026     -0.009
      +0.189     +0.147     +0.001
      +0.101     +0.192     +0.136
      +0.241     +0.078     +0.049
vibration  15
      +0.043     -0.003     -0.014
      +0.016     -0.032     +0.014
      -0.125     +0.057     +0.008
      -0.074     +0.280     -0.139
      -0.231     +0.056     +0.045
      -0.030     -0.012     -0.004
      -0.077     -0.049     -0.018
      +0.413     +0.244     -0.024
      +0.231     +0.400     +0.327
      +0.480     +0.148     +0.050
vibration  16
      +0.000     -0.002     +0.000
      +0.001     +0.000     -0.000
      +0.010     -0.003     +0.004
      -0.002     +0.011     -0.005
      -0.019     +0.004     -0.002
      +0.002     -0.005     +0.005
      +0.023     -0.043     +0.041
      -0.477     -0.017     +0.112
      -0.225     +0.526     -0.461
      +0.398     +0.092     -0.221
vibration  17
      +0.004     +0.000     -0.001
      -0.000     -0.003     +0.002
      -0.024     +0.009     +0.001
      -0.009     +0.021     -0.013
      -0.015     +0.004     +0.005
      +0.002     -0.006     -0.008
      +0.022     -0.034     -0.050
      -0.233     +0.618     +0.189
      -0.091     -0.148     -0.158
      +0.028     +0.030     +0.682
vibration  18
      -0.304     +0.240     -0.021
      +0.250     -0.259     +0.050
      +0.370     +0.068     -0.178
      +0.127     +0.378     -0.270
      -0.482     -0.040     +0.205
      +0.040     -0.008     -0.005
      +0.018     +0.010     +0.003
      -0.068     -0.058     +0.007
      -0.034     -0.084     -0.063
      -0.110     -0.029     -0.013
vibration  19
      +0.001     -0.002     +0.000
      -0.001     +0.001     -0.000
      -0.001     +0.016     -0.010
      -0.001     +0.001     -0.000
      -0.000     -0.004     +0.002
      -0.001     -0.001     -0.000
      -0.018     -0.024     -0.038
      +0.127     -0.197     +0.701
      +0.281     -0.045     -0.195
      -0.186     +0.543     -0.046
vibration  20
      -0.001     -0.001     +0.001
      +0.000     -0.001     +0.000
      +0.000     +0.007     -0.004
      -0.002     -0.001     +0.001
      +0.003     +0.012     -0.008
      +0.000     -0.000     +0.000
      -0.022     +0.071     -0.056
      +0.099     -0.149     +0.602
      -0.087     +0.033     +0.036
      +0.252     -0.722     +0.029
vibration  21
      +0.001     -0.002     +0.001
      +0.001     -0.002     +0.000
      +0.006     +0.026     -0.017
      -0.017     -0.002     +0.008
      +0.005     +0.019     -0.013
      -0.000     -0.000     +0.000
      -0.068     +0.026     +0.056
      -0.049     +0.064     -0.182
      +0.771     -0.117     -0.515
      +0.080     -0.262     +0.033
vibration  22
      -0.011     -0.033     +0.023
      +0.040     -0.039     +0.007
      +0.101     +0.429     -0.287
      -0.555     -0.041     +0.254
      +0.122     +0.465     -0.333
      -0.001     +0.000     +0.000
      +0.004     -0.002     -0.001
      -0.002     +0.000     -0.006
      -0.032     +0.004     +0.021
      -0.006     +0.017     -0.002
vibration  23
      +0.004     +0.065     -0.039
      +0.017     -0.041     +0.017
      -0.154     -0.673     +0.449
      -0.216     -0.014     +0.098
      +0.105     +0.404     -0.288
      +0.001     -0.000     -0.000
      -0.002     -0.001     -0.000
      +0.004     -0.001     +0.011
      +0.013     -0.001     -0.008
      -0.002     +0.009     +0.000
vibration  24
      -0.003     -0.014     +0.009
      -0.068     -0.043     +0.054
      +0.030     +0.143     -0.094
      +0.687     +0.034     -0.304
      +0.117     +0.505     -0.355
      +0.001     +0.000     -0.000
      +0.001     -0.001     +0.000
      -0.001     +0.001     -0.004
      -0.004     +0.001     +0.003
      -0.003     +0.009     -0.001
