[Molden Format]
[FR-COORD] # Coordinates in bohr
  C    -1.457507    -0.950091    -0.000004 
  C    -2.755395    +1.170823    +0.000003 
  H    -2.358498    -2.761093    -0.000046 
  H    -4.776947    +1.101878    -0.000020 
  H    -1.902173    +3.005310    +0.000033 
  O    +1.114011    -1.247943    +0.000013 
  C    +2.700669    +0.955342    -0.000010 
  H    +2.373511    +2.095472    +1.668068 
  H    +4.616360    +0.265356    -0.000029 
  H    +2.373487    +2.095510    -1.668066 
[FREQ] # Frequencies in cm^-1
  226.2300
  250.9405
  318.1867
  642.2064
  787.7900
  937.2902
 1047.8808
 1126.9336
 1159.5498
 1275.4569
 1313.5619
 1345.2953
 1488.3347
 1590.7693
 1641.1659
 1675.0316
 1690.8315
 1841.0276
 3199.3817
 3252.5902
 3315.5607
 3352.4895
 3388.2257
 3431.3664
[FR-NORM-COORD] # Displacements in bohr
vibration  1
      +0.000     -0.000     +0.141
      +0.000     +0.000     -0.054
      -0.000     -0.000     +0.577
      +0.000     +0.000     +0.268
      +0.000     +0.000     -0.547
      +0.000     -0.000     -0.183
      -0.000     +0.000     +0.089
      -0.230     -0.061     +0.087
      -0.000     +0.000     +0.320
      +0.230     +0.061     +0.087
vibration  2
      +0.000     -0.000     -0.041
      +0.000     +0.000     +0.065
      -0.000     +0.000     -0.136
      +0.000     +0.000     +0.058
      +0.000     -0.000     +0.149
      +0.000     -0.000     -0.005
      -0.000     +0.000     -0.020
      -0.377     +0.301     -0.300
      -0.000     +0.000     +0.552
      +0.377     -0.301     -0.300
vibration  3
      -0.024     +0.060     +0.000
      -0.237     -0.071     +0.000
      +0.092     -0.000     +0.000
      -0.231     -0.304     +0.000
      -0.427     +0.022     -0.000
      -0.020     +0.116     -0.000
      +0.250     -0.083     +0.000
      +0.423     -0.037     +0.003
      +0.153     -0.361     +0.000
      +0.423     -0.037     -0.003
vibration  4
      +0.122     +0.178     +0.000
      -0.104     +0.077     -0.000
      +0.007     +0.234     -0.000
      -0.096     -0.441     -0.000
      -0.595     +0.303     +0.000
      +0.106     -0.160     -0.000
      -0.063     -0.052     -0.000
      -0.245     -0.097     -0.005
      +0.033     +0.222     -0.000
      -0.245     -0.097     +0.005
vibration  5
      +0.000     +0.000     -0.182
      -0.000     +0.000     +0.029
      -0.000     -0.000     +0.163
      -0.000     -0.000     +0.835
      +0.000     +0.000     -0.479
      +0.000     -0.000     +0.079
      -0.000     -0.000     +0.007
      +0.039     +0.011     +0.007
      -0.000     +0.000     -0.057
      -0.039     -0.011     +0.007
vibration  6
      -0.221     -0.053     -0.000
      -0.160     +0.065     -0.000
      -0.255     -0.045     -0.000
      -0.182     +0.566     +0.000
      +0.236     -0.109     -0.000
      +0.134     -0.223     +0.000
      +0.192     +0.194     -0.000
      +0.031     +0.125     +0.006
      +0.278     +0.422     -0.000
      +0.031     +0.126     -0.006
vibration  7
      -0.000     -0.000     +0.029
      +0.000     +0.000     -0.156
      +0.000     -0.000     +0.201
      -0.000     -0.000     +0.560
      -0.000     -0.000     +0.788
      +0.000     +0.000     -0.005
      +0.000     -0.000     +0.002
      +0.008     +0.011     -0.002
      +0.000     +0.000     +0.018
      -0.008     -0.011     -0.002
vibration  8
      -0.007     -0.034     +0.000
      +0.142     -0.005     -0.000
      -0.404     +0.153     -0.000
      +0.157     -0.613     +0.000
      -0.381     +0.223     -0.000
      -0.150     -0.099     +0.000
      +0.090     +0.178     -0.000
      +0.178     +0.144     +0.029
      -0.027     -0.132     +0.000
      +0.178     +0.144     -0.029
vibration  9
      +0.000     +0.000     -0.128
      +0.000     -0.000     +0.055
      -0.000     -0.000     +0.872
      +0.000     +0.000     -0.394
      -0.000     -0.000     +0.245
      -0.000     -0.000     +0.011
      +0.000     +0.000     -0.006
      -0.023     -0.034     +0.013
      +0.000     +0.000     +0.022
      +0.023     +0.034     +0.013
vibration  10
      +0.000     +0.000     +0.008
      -0.000     -0.000     -0.005
      +0.000     -0.000     -0.069
      -0.000     +0.000     +0.027
      +0.000     -0.000     +0.010
      +0.000     +0.000     +0.061
      -0.000     -0.000     -0.134
      -0.344     -0.550     +0.177
      -0.000     -0.000     +0.263
      +0.344     +0.550     +0.177
vibration  11
      +0.035     +0.021     -0.000
      -0.044     +0.006     -0.000
      +0.038     +0.021     +0.000
      -0.050     +0.144     +0.000
      +0.057     -0.033     +0.000
      +0.073     -0.058     -0.000
      -0.122     +0.079     +0.000
      +0.380     +0.104     +0.076
      -0.396     -0.677     -0.000
      +0.380     +0.104     -0.076
vibration  12
      -0.242     -0.170     -0.000
      +0.090     +0.128     +0.000
      -0.363     -0.121     +0.000
      +0.083     -0.390     -0.000
      -0.550     +0.416     +0.000
      +0.212     +0.110     +0.000
      -0.078     -0.097     -0.000
      +0.124     +0.017     -0.022
      -0.043     -0.038     +0.000
      +0.124     +0.017     +0.022
vibration  13
      +0.002     +0.065     +0.000
      -0.008     -0.096     -0.000
      -0.788     +0.460     +0.000
      +0.004     -0.103     -0.000
      +0.281     -0.242     +0.000
      +0.049     +0.035     +0.000
      -0.018     -0.028     -0.000
      +0.007     -0.007     -0.008
      +0.008     +0.040     +0.000
      +0.007     -0.007     +0.008
vibration  14
      +0.078     -0.078     -0.000
      -0.008     -0.015     -0.000
      -0.312     +0.101     -0.000
      -0.038     +0.566     +0.000
      -0.434     +0.203     -0.000
      -0.001     +0.028     +0.000
      +0.053     +0.032     -0.000
      -0.291     -0.132     +0.032
      -0.091     -0.330     -0.000
      -0.291     -0.132     -0.032
vibration  15
      -0.060     +0.020     -0.000
      -0.008     +0.036     +0.000
      +0.108     -0.064     -0.000
      +0.011     -0.420     -0.000
      +0.324     -0.128     +0.000
      +0.033     +0.012     +0.000
      +0.061     +0.061     +0.000
      -0.374     -0.253     +0.115
      -0.142     -0.467     -0.000
      -0.374     -0.253     -0.115
vibration  16
      +0.000     -0.000     -0.002
      -0.000     +0.000     +0.002
      -0.000     -0.000     +0.004
      -0.000     -0.000     +0.004
      +0.000     +0.000     -0.023
      -0.000     -0.000     -0.008
      -0.000     +0.000     -0.062
      +0.476     -0.018     +0.076
      +0.000     -0.000     +0.728
      -0.476     +0.017     +0.076
vibration  17
      +0.006     -0.008     -0.000
      +0.003     -0.002     +0.000
      -0.023     +0.005     -0.000
      -0.000     +0.044     +0.000
      -0.044     +0.021     +0.000
      -0.008     +0.011     +0.000
      -0.036     +0.049     +0.000
      +0.226     -0.498     +0.398
      +0.068     +0.270     -0.000
      +0.226     -0.498     -0.398
vibration  18
      -0.247     +0.277     +0.000
      +0.189     -0.282     -0.000
      +0.424     +0.018     +0.000
      +0.209     +0.422     +0.000
      -0.547     +0.003     -0.000
      +0.046     -0.021     +0.000
      +0.007     +0.016     -0.000
      -0.084     -0.055     +0.032
      -0.044     -0.135     +0.000
      -0.084     -0.055     -0.032
vibration  19
      +0.001     -0.002     -0.000
      +0.000     +0.002     -0.000
      +0.004     +0.014     +0.000
      -0.001     +0.003     +0.000
      -0.010     -0.020     -0.000
      -0.001     -0.001     -0.000
      -0.006     -0.048     +0.000
      -0.111     +0.356     +0.554
      +0.300     -0.119     +0.000
      -0.111     +0.356     -0.555
vibration  20
      +0.000     -0.000     -0.000
      +0.000     +0.000     +0.000
      +0.000     +0.000     -0.001
      +0.000     +0.000     -0.001
      -0.000     -0.000     +0.000
      -0.000     -0.000     +0.000
      -0.000     -0.000     -0.094
      -0.129     +0.393     +0.569
      +0.000     -0.000     -0.027
      +0.129     -0.393     +0.569
vibration  21
      -0.000     +0.002     +0.000
      +0.000     +0.002     +0.000
      -0.012     -0.024     -0.000
      +0.009     +0.001     +0.000
      -0.014     -0.026     -0.000
      +0.000     +0.000     +0.000
      +0.079     -0.046     -0.000
      -0.022     +0.106     +0.184
      -0.887     +0.334     +0.000
      -0.022     +0.106     -0.184
vibration  22
      +0.013     +0.013     +0.000
      -0.039     +0.054     +0.000
      -0.109     -0.222     -0.000
      +0.699     +0.032     +0.000
      -0.288     -0.600     -0.000
      +0.000     -0.000     +0.000
      -0.003     +0.002     +0.000
      +0.003     -0.007     -0.013
      +0.024     -0.010     -0.000
      +0.003     -0.007     +0.013
vibration  23
      -0.030     -0.079     -0.000
      +0.008     +0.033     +0.000
      +0.406     +0.840     +0.000
      -0.003     +0.001     +0.000
      -0.149     -0.315     -0.000
      -0.001     +0.000     +0.000
      +0.003     +0.001     +0.000
      +0.002     -0.007     -0.009
      -0.019     +0.006     +0.000
      +0.002     -0.007     +0.009
vibration  24
      +0.010     +0.021     +0.000
      +0.081     +0.049     +0.000
      -0.106     -0.226     -0.000
      -0.708     -0.012     -0.000
      -0.267     -0.596     -0.000
      -0.001     +0.000     -0.000
      -0.002     +0.001     +0.000
      +0.002     -0.006     -0.011
      +0.013     -0.006     -0.000
      +0.002     -0.006     +0.011
