[Molden Format]
[FR-COORD] # Coordinates in bohr
  C    -1.330907    -0.855206    +0.332703 
  C    -3.131491    +0.823063    +0.051517 
  H    -1.570418    -2.518166    +1.470220 
  H    -4.923884    +0.576150    +0.959039 
  H    -2.873626    +2.458469    -1.115010 
  O    +1.004924    -0.679196    -0.853721 
  C    +3.019708    +0.648062    +0.452031 
  H    +2.422145    +1.281598    +2.302761 
  H    +4.609261    -0.618231    +0.642305 
  H    +3.565511    +2.265861    -0.667239 
[FREQ] # Frequencies in cm^-1
 -187.8495
 -120.7061
  346.4941
  512.7305
  837.3961
  918.0220
 1093.7338
 1126.2976
 1147.9179
 1241.1677
 1253.4789
 1322.3434
 1483.3966
 1578.3197
 1631.7031
 1670.4954
 1688.9516
 1856.7923
 3208.2541
 3275.0143
 3285.9593
 3329.5781
 3350.5103
 3424.7212
[FR-NORM-COORD] # Displacements in bohr
vibration  1
      -0.012     +0.007     -0.000
      +0.020     +0.037     -0.026
      -0.061     +0.018     +0.005
      +0.009     +0.067     -0.038
      +0.050     +0.030     -0.029
      +0.015     -0.075     +0.039
      -0.022     +0.034     -0.015
      +0.157     -0.435     +0.203
      +0.196     +0.236     -0.510
      -0.432     +0.349     +0.237
vibration  2
      -0.040     -0.094     -0.108
      +0.102     +0.094     +0.089
      -0.234     -0.267     -0.405
      +0.051     +0.086     -0.013
      +0.261     +0.266     +0.364
      +0.036     -0.129     +0.044
      -0.087     +0.121     -0.025
      -0.221     +0.346     -0.146
      -0.057     +0.197     +0.238
      -0.070     -0.014     -0.210
vibration  3
      +0.088     +0.004     +0.046
      +0.120     +0.026     +0.029
      +0.243     +0.194     +0.355
      +0.226     +0.263     +0.300
      +0.058     -0.183     -0.278
      -0.006     -0.048     -0.171
      -0.182     +0.004     +0.082
      -0.441     -0.089     +0.029
      -0.134     +0.089     +0.234
      -0.156     +0.079     +0.203
vibration  4
      -0.029     -0.172     +0.122
      +0.164     -0.023     -0.063
      -0.021     -0.256     -0.009
      -0.040     +0.328     -0.386
      +0.705     -0.115     -0.077
      -0.122     +0.152     +0.023
      -0.028     +0.001     -0.036
      +0.105     -0.009     +0.012
      -0.058     -0.057     -0.150
      -0.017     +0.004     -0.029
vibration  5
      +0.107     +0.118     +0.117
      +0.027     -0.011     -0.019
      +0.004     -0.041     -0.140
      -0.196     -0.519     -0.595
      +0.056     +0.259     +0.369
      +0.001     -0.016     -0.020
      -0.097     -0.052     -0.041
      -0.182     -0.078     -0.059
      -0.065     -0.001     +0.041
      -0.083     -0.014     +0.019
vibration  6
      -0.132     -0.026     +0.161
      -0.141     +0.021     +0.043
      -0.070     -0.117     +0.033
      -0.424     +0.277     -0.442
      +0.367     -0.010     +0.096
      +0.056     -0.097     -0.213
      +0.183     +0.096     +0.073
      -0.085     -0.011     +0.017
      +0.224     +0.170     +0.212
      +0.162     +0.164     +0.166
vibration  7
      -0.001     +0.000     -0.009
      +0.041     +0.069     +0.113
      -0.102     -0.168     -0.277
      -0.153     -0.216     -0.349
      -0.254     -0.429     -0.652
      +0.003     +0.001     +0.004
      -0.000     -0.002     -0.002
      -0.013     -0.007     -0.006
      -0.001     -0.003     +0.000
      -0.000     +0.002     +0.003
vibration  8
      -0.016     -0.060     -0.067
      +0.117     +0.041     +0.004
      -0.038     +0.320     +0.499
      +0.073     -0.565     -0.241
      -0.231     +0.167     +0.121
      -0.153     -0.044     -0.049
      +0.100     +0.075     +0.100
      +0.206     +0.144     +0.106
      +0.049     -0.001     -0.064
      -0.029     -0.027     -0.096
vibration  9
      -0.038     -0.046     -0.122
      -0.045     +0.023     +0.098
      +0.410     +0.351     +0.548
      -0.310     +0.062     -0.423
      +0.264     -0.048     +0.051
      +0.089     +0.031     +0.045
      -0.059     -0.045     -0.044
      -0.031     -0.018     -0.041
      -0.018     +0.004     -0.017
      -0.037     -0.033     -0.024
vibration  10
      +0.019     +0.020     -0.014
      -0.001     -0.017     +0.012
      +0.056     +0.019     -0.010
      -0.029     +0.022     -0.040
      +0.087     -0.035     +0.003
      -0.009     -0.058     +0.012
      -0.033     +0.119     -0.026
      +0.134     -0.177     +0.128
      -0.489     -0.470     -0.192
      +0.565     +0.116     +0.260
vibration  11
      +0.102     +0.107     -0.061
      -0.049     -0.062     +0.041
      +0.255     -0.039     -0.251
      -0.138     +0.264     -0.072
      +0.361     -0.159     -0.024
      -0.066     -0.048     -0.024
      -0.013     +0.012     +0.117
      +0.390     +0.286     +0.149
      -0.022     -0.040     -0.235
      -0.275     -0.234     -0.349
vibration  12
      -0.075     -0.078     +0.099
      +0.005     +0.060     -0.034
      -0.137     -0.079     +0.087
      +0.037     -0.102     +0.013
      -0.299     +0.144     +0.024
      +0.156     +0.029     -0.074
      -0.130     -0.006     +0.061
      +0.567     +0.268     +0.194
      -0.192     -0.155     -0.358
      -0.062     -0.257     -0.277
vibration  13
      -0.011     +0.061     -0.028
      +0.014     -0.079     +0.042
      -0.822     +0.294     +0.150
      +0.045     -0.127     +0.065
      +0.368     -0.193     -0.026
      +0.036     +0.021     -0.017
      -0.013     -0.004     -0.001
      -0.001     +0.001     -0.002
      -0.019     -0.014     -0.034
      -0.021     -0.024     -0.032
vibration  14
      +0.102     -0.049     -0.008
      +0.002     -0.024     +0.014
      -0.337     +0.060     +0.089
      -0.224     +0.546     -0.252
      -0.484     +0.137     +0.110
      -0.004     +0.012     +0.005
      +0.034     +0.021     +0.017
      -0.246     -0.095     -0.046
      -0.128     -0.184     -0.116
      -0.160     -0.039     -0.143
vibration  15
      +0.040     +0.003     -0.018
      +0.021     -0.034     +0.014
      -0.142     +0.055     +0.015
      -0.095     +0.268     -0.133
      -0.217     +0.037     +0.057
      -0.032     -0.011     -0.007
      -0.071     -0.037     -0.043
      +0.540     +0.158     +0.110
      +0.228     +0.360     +0.307
      +0.311     +0.102     +0.318
vibration  16
      -0.002     -0.001     +0.000
      -0.002     +0.003     -0.001
      +0.009     -0.004     +0.001
      +0.006     -0.016     +0.009
      +0.012     -0.003     -0.006
      +0.002     +0.007     -0.002
      -0.005     +0.058     -0.030
      +0.217     -0.632     +0.280
      -0.063     +0.031     +0.503
      -0.096     -0.209     -0.400
vibration  17
      -0.004     -0.001     +0.001
      -0.001     +0.002     -0.000
      +0.000     -0.002     +0.001
      +0.005     -0.017     +0.007
      +0.015     -0.002     -0.003
      +0.009     -0.001     -0.006
      +0.043     -0.016     -0.043
      +0.260     +0.228     -0.023
      -0.317     -0.367     +0.387
      -0.558     +0.356     +0.226
vibration  18
      +0.327     -0.217     +0.007
      -0.271     +0.241     -0.039
      -0.366     -0.094     +0.194
      -0.091     -0.378     +0.277
      +0.456     +0.077     -0.224
      -0.041     +0.002     +0.005
      -0.020     -0.004     -0.008
      +0.113     +0.035     +0.019
      +0.030     +0.070     +0.041
      +0.085     +0.024     +0.091
vibration  19
      +0.002     -0.002     +0.001
      -0.001     +0.000     +0.000
      -0.001     +0.021     -0.013
      -0.003     +0.000     +0.001
      +0.000     -0.002     +0.001
      -0.001     -0.001     -0.001
      -0.023     -0.023     -0.030
      -0.219     +0.208     +0.629
      +0.381     -0.321     +0.037
      +0.127     +0.399     -0.294
vibration  20
      -0.001     -0.001     +0.001
      -0.000     +0.000     -0.000
      -0.000     +0.006     -0.004
      -0.000     -0.000     +0.000
      -0.000     -0.001     +0.000
      +0.001     +0.000     +0.000
      +0.053     +0.003     -0.077
      -0.214     +0.214     +0.624
      -0.273     +0.241     -0.053
      -0.141     -0.494     +0.334
vibration  21
      +0.000     +0.002     -0.001
      -0.000     +0.001     -0.000
      -0.003     -0.027     +0.017
      +0.006     +0.001     -0.004
      -0.002     -0.009     +0.006
      -0.000     +0.001     -0.000
      +0.040     -0.082     +0.024
      -0.028     +0.013     +0.115
      -0.606     +0.494     -0.057
      +0.165     +0.463     -0.347
vibration  22
      -0.007     -0.050     +0.034
      +0.035     -0.023     +0.000
      +0.077     +0.607     -0.408
      -0.465     -0.069     +0.240
      +0.055     +0.335     -0.240
      -0.001     +0.000     +0.000
      +0.002     -0.002     +0.002
      +0.003     -0.006     -0.012
      -0.026     +0.019     -0.003
      +0.002     +0.009     -0.008
vibration  23
      +0.005     -0.053     +0.031
      -0.035     +0.045     -0.014
      +0.064     +0.532     -0.357
      +0.390     +0.055     -0.198
      -0.080     -0.499     +0.357
      -0.001     +0.000     +0.000
      +0.001     -0.000     +0.001
      +0.004     -0.005     -0.013
      -0.013     +0.008     -0.002
      -0.000     +0.001     -0.001
vibration  24
      -0.002     -0.012     +0.008
      -0.061     -0.050     +0.058
      +0.012     +0.120     -0.080
      +0.646     +0.080     -0.321
      +0.073     +0.541     -0.381
      +0.001     +0.000     -0.000
      +0.000     -0.001     +0.000
      -0.000     -0.001     +0.000
      -0.004     +0.003     -0.000
      +0.001     +0.003     -0.002
