[Molden Format]
[FR-COORD] # Coordinates in bohr
  C    +1.382054    -0.076209    -0.302889 
  C    +2.921769    -1.756457    +0.670419 
  H    +2.053120    +1.573754    -1.281835 
  H    +4.926373    -1.549655    +0.492295 
  H    +2.202764    -3.382234    +1.637120 
  O    -1.211681    -0.343636    -0.207979 
  C    -2.683904    +1.942955    -0.131510 
  H    -2.202278    +3.184505    -1.690325 
  H    -4.631618    +1.371422    -0.298982 
  H    -2.406205    +2.942773    +1.632236 
[FREQ] # Frequencies in cm^-1
   67.5053
  178.7913
  333.3490
  540.8105
  800.4162
  926.3658
 1069.6239
 1140.0397
 1190.6416
 1234.6484
 1266.9748
 1338.3182
 1479.9281
 1584.3766
 1634.9260
 1674.5749
 1688.6114
 1871.5939
 3189.4868
 3243.2276
 3310.9722
 3315.3652
 3352.2576
 3433.6461
[FR-NORM-COORD] # Displacements in bohr
vibration  1
      -0.009     -0.066     -0.165
      -0.034     +0.099     +0.156
      +0.009     -0.238     -0.443
      -0.030     +0.047     +0.140
      -0.059     +0.275     +0.434
      -0.018     -0.036     -0.167
      +0.054     +0.005     +0.160
      +0.079     +0.201     +0.324
      +0.033     +0.093     +0.106
      +0.115     -0.246     +0.292
vibration  2
      -0.012     -0.027     -0.028
      +0.025     +0.008     -0.026
      -0.044     -0.077     -0.135
      +0.017     -0.009     -0.138
      +0.068     +0.057     +0.088
      -0.008     +0.005     +0.085
      -0.005     +0.010     -0.028
      +0.420     +0.198     +0.252
      +0.030     +0.062     -0.611
      -0.446     -0.211     +0.166
vibration  3
      +0.131     +0.040     -0.086
      -0.076     -0.090     +0.027
      +0.239     -0.109     -0.260
      -0.044     -0.448     -0.010
      -0.354     +0.121     +0.177
      +0.132     +0.140     +0.032
      -0.155     -0.068     +0.020
      -0.357     +0.009     +0.018
      -0.068     -0.373     +0.017
      -0.330     -0.022     +0.022
vibration  4
      +0.003     -0.183     +0.073
      +0.198     -0.077     +0.038
      +0.128     -0.260     +0.015
      +0.150     +0.239     -0.223
      +0.626     -0.172     +0.191
      -0.049     +0.113     -0.090
      -0.160     +0.108     +0.002
      -0.311     +0.164     +0.003
      -0.121     -0.049     +0.070
      -0.174     +0.078     +0.018
vibration  5
      -0.021     +0.084     +0.159
      -0.011     -0.001     -0.022
      -0.031     -0.106     -0.171
      -0.036     -0.380     -0.747
      +0.036     +0.222     +0.388
      -0.004     -0.018     -0.064
      +0.028     -0.032     -0.009
      +0.038     -0.022     +0.001
      +0.011     +0.021     +0.020
      +0.087     -0.056     -0.004
vibration  6
      +0.180     +0.075     -0.009
      +0.151     -0.017     +0.001
      -0.009     +0.102     -0.084
      +0.228     -0.586     +0.228
      -0.399     +0.181     -0.050
      -0.118     -0.171     -0.003
      -0.141     +0.150     +0.005
      +0.021     +0.065     -0.005
      -0.207     +0.365     -0.006
      -0.011     +0.115     -0.002
vibration  7
      +0.000     -0.015     -0.032
      -0.001     +0.077     +0.136
      +0.012     -0.094     -0.156
      -0.018     -0.257     -0.467
      -0.001     -0.417     -0.694
      +0.005     -0.004     +0.005
      -0.005     +0.007     -0.000
      -0.005     +0.005     -0.001
      -0.002     -0.002     -0.003
      -0.004     +0.003     +0.001
vibration  8
      +0.011     +0.068     +0.105
      -0.009     -0.028     -0.046
      +0.040     -0.441     -0.734
      -0.002     +0.240     +0.338
      +0.021     -0.147     -0.225
      -0.007     -0.002     -0.005
      +0.000     -0.009     -0.002
      +0.015     +0.000     +0.009
      -0.011     +0.027     +0.003
      +0.028     -0.018     -0.001
vibration  9
      +0.029     +0.047     -0.020
      -0.179     -0.024     +0.003
      +0.301     -0.024     +0.045
      -0.262     +0.544     -0.326
      +0.388     -0.152     +0.172
      +0.191     -0.213     +0.010
      -0.124     +0.203     +0.015
      -0.034     +0.085     -0.033
      -0.080     +0.083     -0.022
      -0.092     +0.162     +0.021
vibration  10
      -0.121     -0.079     +0.065
      +0.044     +0.056     -0.039
      -0.376     -0.059     -0.063
      +0.074     -0.214     +0.147
      -0.350     +0.175     -0.112
      +0.090     -0.055     -0.011
      +0.039     +0.126     -0.016
      -0.326     +0.250     -0.019
      +0.232     -0.522     +0.028
      -0.220     +0.015     +0.080
vibration  11
      -0.004     -0.004     +0.005
      +0.005     +0.003     -0.002
      -0.019     -0.011     -0.020
      +0.008     -0.014     +0.013
      -0.019     +0.007     -0.013
      -0.008     +0.001     -0.060
      +0.017     +0.005     +0.131
      +0.233     -0.506     -0.211
      +0.092     -0.135     -0.263
      -0.382     +0.599     -0.144
vibration  12
      +0.115     +0.086     -0.039
      -0.038     -0.041     +0.026
      +0.161     +0.080     -0.017
      -0.054     +0.119     -0.103
      +0.257     -0.126     +0.089
      -0.159     -0.039     +0.020
      +0.140     +0.031     -0.015
      -0.415     +0.224     -0.034
      +0.314     -0.583     +0.005
      -0.329     +0.009     +0.074
vibration  13
      +0.002     +0.064     -0.036
      -0.001     -0.083     +0.048
      -0.802     +0.299     -0.194
      +0.019     -0.120     +0.086
      +0.356     -0.214     +0.109
      +0.033     +0.009     -0.009
      -0.007     -0.001     +0.002
      -0.009     +0.027     +0.012
      -0.023     +0.060     -0.010
      +0.009     +0.036     -0.019
vibration  14
      -0.089     +0.049     -0.026
      -0.007     +0.031     -0.019
      +0.336     -0.069     +0.040
      +0.093     -0.552     +0.324
      +0.505     -0.147     +0.080
      +0.005     -0.007     +0.005
      -0.025     +0.036     -0.001
      +0.191     -0.128     -0.049
      +0.069     -0.249     +0.005
      +0.152     -0.132     +0.056
vibration  15
      -0.037     -0.005     +0.004
      -0.017     +0.038     -0.022
      +0.134     -0.066     +0.035
      +0.027     -0.256     +0.147
      +0.211     -0.039     +0.019
      +0.026     -0.019     +0.001
      +0.070     -0.065     +0.004
      -0.471     +0.248     +0.066
      -0.126     +0.550     -0.027
      -0.383     +0.255     -0.093
vibration  16
      +0.002     -0.001     -0.000
      -0.003     +0.003     -0.001
      +0.001     -0.000     -0.001
      -0.001     -0.013     +0.008
      +0.015     -0.004     -0.001
      -0.001     -0.004     -0.007
      -0.003     -0.018     -0.061
      +0.477     +0.155     +0.248
      -0.041     -0.084     +0.685
      -0.399     +0.197     -0.080
vibration  17
      +0.002     -0.002     +0.001
      -0.004     +0.006     -0.003
      +0.030     -0.009     +0.012
      -0.000     -0.020     +0.008
      +0.016     +0.001     +0.001
      -0.006     -0.009     +0.002
      -0.038     -0.048     +0.014
      +0.057     +0.442     +0.391
      +0.062     -0.233     -0.249
      +0.414     +0.484     -0.343
vibration  18
      -0.308     +0.241     -0.129
      +0.228     -0.239     +0.135
      +0.492     +0.060     -0.053
      +0.201     +0.332     -0.196
      -0.465     -0.060     +0.059
      +0.034     -0.030     +0.007
      +0.029     -0.010     +0.000
      -0.089     +0.084     +0.046
      +0.017     +0.060     +0.003
      -0.095     +0.093     -0.040
vibration  19
      +0.001     -0.003     +0.002
      -0.001     +0.000     -0.000
      +0.004     +0.028     -0.017
      -0.003     +0.000     -0.000
      +0.001     +0.000     +0.000
      -0.001     +0.001     +0.000
      -0.000     +0.050     -0.014
      -0.193     -0.462     +0.613
      +0.277     +0.092     +0.019
      -0.072     -0.241     -0.470
vibration  20
      -0.000     +0.000     -0.000
      +0.000     -0.000     +0.000
      -0.003     -0.002     -0.000
      +0.000     -0.000     -0.000
      +0.001     +0.001     -0.000
      +0.000     -0.000     +0.000
      +0.010     -0.001     -0.092
      -0.147     -0.345     +0.426
      -0.105     -0.032     -0.037
      +0.128     +0.392     +0.697
vibration  21
      +0.004     +0.009     -0.005
      -0.002     +0.000     -0.000
      -0.041     -0.107     +0.063
      +0.030     +0.004     -0.003
      -0.005     -0.011     +0.006
      -0.000     +0.000     +0.000
      -0.080     -0.039     -0.013
      +0.025     +0.085     -0.133
      +0.899     +0.279     +0.077
      +0.020     +0.102     +0.212
vibration  22
      -0.022     -0.066     +0.039
      +0.016     -0.005     +0.003
      +0.299     +0.761     -0.451
      -0.278     -0.033     +0.027
      +0.055     +0.123     -0.074
      -0.000     -0.000     +0.000
      -0.010     -0.007     -0.002
      +0.005     +0.029     -0.037
      +0.111     +0.038     +0.009
      +0.003     +0.024     +0.045
vibration  23
      +0.000     -0.028     +0.016
      -0.041     +0.049     -0.028
      +0.090     +0.237     -0.140
      +0.644     +0.069     -0.058
      -0.250     -0.560     +0.334
      +0.000     +0.000     +0.000
      -0.001     -0.001     -0.000
      +0.001     +0.005     -0.006
      +0.007     +0.004     +0.001
      +0.001     +0.004     +0.007
vibration  24
      -0.004     -0.008     +0.005
      -0.078     -0.051     +0.032
      +0.028     +0.081     -0.048
      +0.698     +0.063     -0.056
      +0.235     +0.564     -0.335
      +0.001     -0.000     +0.000
      +0.000     -0.000     +0.000
      -0.000     +0.002     -0.001
      -0.000     +0.000     -0.000
      -0.000     +0.000     +0.001
