[Molden Format]
[FR-COORD] # Coordinates in bohr
  C    +3.656616    +0.100064    +0.025175 
  C    +1.300162    -0.683954    +0.061264 
  H    +4.140680    +2.073083    -0.046711 
  C    -0.978048    +1.038537    +0.016603 
  H    +0.842601    -2.658720    +0.114219 
  H    +5.212966    -1.198271    +0.062967 
  O    -3.228762    -0.504520    -0.165427 
  H    -1.009920    +2.194660    +1.710378 
  H    -0.902992    +2.288313    -1.600610 
  H    -4.414613    -0.105357    +1.158307 
[FREQ] # Frequencies in cm^-1
 -293.3449
  -88.5300
  330.3563
  533.4766
  618.5197
  956.9784
 1064.9182
 1107.1172
 1113.5481
 1163.1556
 1236.3329
 1332.1267
 1434.3331
 1445.9561
 1536.0084
 1610.9487
 1670.4449
 1855.3216
 3189.4729
 3236.7027
 3306.1506
 3358.7177
 3389.5749
 3900.0090
[FR-NORM-COORD] # Displacements in bohr
vibration  1
      +0.009     +0.001     +0.019
      +0.012     -0.006     +0.014
      +0.001     +0.004     +0.025
      +0.003     -0.015     -0.030
      +0.030     -0.012     -0.010
      +0.015     +0.008     +0.015
      -0.047     +0.057     -0.031
      -0.001     +0.073     -0.091
      -0.017     -0.097     -0.088
      +0.424     -0.645     +0.602
vibration  2
      -0.003     -0.003     -0.158
      +0.001     +0.000     +0.187
      -0.015     -0.015     -0.577
      -0.001     -0.006     +0.130
      +0.013     +0.008     +0.598
      +0.003     +0.008     -0.042
      +0.004     +0.018     -0.140
      -0.130     -0.137     +0.219
      +0.115     +0.121     +0.235
      -0.012     -0.183     -0.095
vibration  3
      +0.037     -0.150     -0.002
      -0.075     +0.198     -0.000
      +0.406     -0.243     +0.013
      -0.080     +0.173     +0.002
      -0.262     +0.240     -0.020
      -0.208     -0.447     -0.016
      +0.113     -0.136     +0.000
      -0.197     +0.166     +0.004
      -0.209     +0.164     -0.009
      +0.076     -0.355     +0.033
vibration  4
      -0.286     +0.027     -0.005
      -0.187     -0.131     +0.009
      -0.607     +0.110     +0.021
      +0.126     +0.089     -0.005
      -0.296     -0.097     -0.038
      -0.090     +0.272     -0.054
      +0.285     -0.003     +0.007
      +0.164     +0.125     -0.027
      +0.187     +0.037     -0.045
      +0.259     -0.213     +0.040
vibration  5
      -0.007     +0.000     +0.048
      -0.008     -0.001     -0.147
      -0.005     -0.016     -0.374
      +0.003     +0.001     -0.023
      -0.013     +0.013     +0.335
      -0.009     +0.017     +0.687
      +0.005     +0.001     +0.024
      +0.118     -0.278     +0.172
      -0.104     +0.270     +0.179
      +0.072     -0.023     +0.091
vibration  6
      +0.103     -0.071     +0.001
      +0.087     -0.154     -0.013
      -0.458     +0.077     -0.035
      -0.102     +0.222     +0.017
      -0.151     -0.101     +0.009
      +0.508     +0.417     +0.056
      -0.031     -0.034     +0.003
      -0.121     +0.255     -0.009
      -0.171     +0.133     -0.053
      -0.179     -0.197     -0.077
vibration  7
      +0.004     -0.015     +0.042
      +0.001     +0.007     +0.063
      -0.115     +0.017     +0.045
      +0.046     +0.040     -0.144
      -0.119     +0.038     +0.111
      +0.078     +0.062     -0.479
      -0.045     -0.050     +0.012
      -0.018     -0.440     +0.188
      +0.021     +0.488     +0.206
      +0.260     +0.248     +0.207
vibration  8
      +0.031     +0.001     +0.122
      +0.020     -0.045     +0.000
      +0.066     -0.034     -0.564
      -0.270     -0.106     -0.066
      +0.227     -0.107     -0.129
      +0.024     -0.034     -0.507
      +0.175     +0.138     +0.035
      -0.202     -0.209     +0.011
      -0.264     +0.072     +0.058
      -0.013     -0.085     -0.100
vibration  9
      +0.012     -0.010     -0.122
      +0.007     -0.015     +0.022
      +0.006     +0.026     +0.817
      -0.102     -0.037     -0.052
      +0.072     -0.024     +0.394
      +0.031     +0.021     +0.262
      +0.064     +0.047     +0.015
      -0.128     -0.153     +0.034
      -0.074     +0.104     +0.058
      +0.061     +0.022     +0.009
vibration  10
      +0.009     -0.013     -0.074
      +0.000     +0.010     +0.121
      -0.048     +0.000     -0.147
      -0.023     -0.015     -0.040
      -0.050     -0.003     -0.757
      +0.052     +0.056     +0.521
      +0.012     +0.003     +0.008
      -0.149     -0.141     +0.043
      +0.048     +0.125     +0.067
      +0.120     +0.123     +0.068
vibration  11
      -0.056     +0.093     -0.014
      +0.034     -0.146     +0.036
      +0.453     -0.046     +0.016
      -0.014     +0.136     -0.039
      +0.556     -0.271     -0.080
      -0.384     -0.313     +0.041
      -0.018     -0.029     +0.011
      +0.127     +0.010     +0.051
      +0.070     +0.220     +0.027
      -0.096     -0.132     -0.023
vibration  12
      +0.007     -0.006     -0.014
      -0.007     +0.030     +0.066
      -0.035     +0.009     +0.050
      +0.026     -0.022     -0.054
      -0.117     +0.053     -0.077
      +0.033     +0.028     -0.007
      -0.007     +0.024     +0.013
      +0.670     -0.157     +0.056
      -0.368     +0.061     -0.001
      -0.383     -0.396     -0.206
vibration  13
      +0.044     +0.091     -0.001
      -0.003     -0.077     -0.010
      +0.359     +0.017     -0.003
      -0.005     -0.015     -0.030
      -0.738     +0.085     +0.014
      -0.040     -0.026     -0.007
      -0.001     +0.015     +0.033
      -0.191     -0.091     +0.011
      +0.392     +0.023     +0.013
      -0.196     -0.233     -0.078
vibration  14
      +0.010     +0.063     -0.004
      +0.016     -0.080     +0.017
      +0.225     +0.006     +0.004
      +0.001     +0.004     +0.046
      -0.380     +0.004     +0.001
      -0.088     -0.065     +0.009
      +0.012     -0.008     -0.049
      +0.117     +0.083     +0.000
      -0.709     -0.093     -0.049
      +0.317     +0.357     +0.125
vibration  15
      -0.030     -0.002     +0.000
      +0.055     -0.005     -0.002
      -0.202     +0.027     +0.002
      +0.135     -0.017     -0.028
      +0.028     +0.009     -0.002
      -0.182     -0.170     +0.003
      -0.007     +0.036     +0.031
      -0.701     -0.029     -0.042
      -0.478     +0.098     +0.030
      -0.260     -0.228     -0.129
vibration  16
      -0.013     -0.017     +0.001
      -0.120     -0.007     +0.001
      +0.601     -0.150     +0.002
      +0.063     -0.008     -0.006
      +0.211     -0.087     -0.000
      +0.452     +0.514     -0.022
      -0.000     +0.006     +0.006
      -0.190     +0.010     -0.025
      -0.176     +0.041     +0.023
      -0.057     -0.050     -0.030
vibration  17
      +0.006     +0.004     -0.000
      -0.001     -0.007     +0.001
      -0.011     +0.008     +0.002
      -0.005     -0.080     -0.001
      -0.038     +0.001     +0.002
      -0.011     -0.016     -0.001
      -0.004     -0.008     -0.002
      +0.097     +0.574     -0.406
      +0.013     +0.542     +0.441
      +0.000     -0.002     +0.002
vibration  18
      -0.351     -0.102     +0.005
      +0.378     +0.065     -0.005
      +0.446     -0.351     +0.008
      -0.054     -0.003     +0.002
      -0.253     +0.261     -0.005
      +0.085     +0.492     -0.014
      -0.007     +0.002     -0.001
      +0.066     +0.024     -0.015
      +0.082     +0.010     +0.017
      -0.001     +0.012     +0.001
vibration  19
      +0.001     +0.001     +0.000
      -0.000     +0.001     -0.000
      -0.003     -0.018     -0.000
      +0.002     -0.059     -0.040
      -0.003     -0.005     -0.002
      -0.007     +0.009     -0.000
      -0.001     +0.000     +0.001
      -0.022     +0.504     +0.781
      +0.014     +0.196     -0.301
      +0.008     -0.006     -0.010
vibration  20
      -0.001     -0.001     +0.000
      +0.000     -0.001     -0.001
      +0.003     +0.018     -0.004
      +0.002     +0.030     -0.086
      +0.004     +0.010     -0.004
      +0.007     -0.008     +0.001
      +0.000     +0.000     +0.001
      -0.012     +0.201     +0.274
      -0.024     -0.563     +0.747
      +0.003     -0.004     -0.013
vibration  21
      +0.058     +0.041     -0.002
      -0.007     +0.004     -0.000
      -0.195     -0.814     +0.030
      +0.000     +0.002     -0.001
      -0.017     -0.078     +0.002
      -0.402     +0.353     -0.010
      +0.000     -0.000     +0.000
      +0.002     -0.008     -0.011
      +0.001     -0.017     +0.021
      +0.000     -0.000     +0.000
vibration  22
      -0.010     +0.042     -0.001
      -0.021     -0.075     +0.002
      -0.071     -0.274     +0.010
      -0.001     -0.001     +0.001
      +0.200     +0.873     -0.023
      +0.255     -0.211     +0.006
      +0.000     +0.000     -0.000
      +0.000     -0.000     +0.001
      +0.000     +0.004     -0.007
      +0.003     +0.001     -0.000
vibration  23
      +0.045     -0.075     +0.002
      -0.012     -0.038     +0.001
      +0.119     +0.431     -0.016
      -0.001     -0.000     +0.000
      +0.100     +0.423     -0.011
      -0.600     +0.491     -0.014
      +0.000     +0.000     -0.000
      -0.002     +0.000     +0.000
      -0.002     +0.003     -0.004
      +0.002     +0.000     -0.001
vibration  24
      -0.000     -0.000     +0.000
      -0.000     -0.000     -0.000
      +0.000     +0.000     -0.000
      -0.002     -0.003     -0.003
      +0.000     +0.002     -0.000
      -0.001     +0.000     -0.000
      +0.043     -0.011     -0.045
      -0.006     +0.006     +0.014
      -0.001     -0.006     +0.004
      -0.658     +0.209     +0.720
