[Molden Format]
[FR-COORD] # Coordinates in bohr
  C    +2.991460    -0.877011    +0.164688 
  C    +1.507070    +1.068883    -0.272517 
  H    +2.332044    -2.573294    +1.071314 
  C    -1.279934    +1.157836    +0.406678 
  H    +2.265913    +2.735373    -1.149203 
  H    +4.951735    -0.862839    -0.349684 
  O    -2.685709    -1.072907    -0.295366 
  H    -1.465068    +1.486804    +2.422436 
  H    -2.172463    +2.715334    -0.559567 
  H    -1.611304    -2.544309    -0.305975 
[FREQ] # Frequencies in cm^-1
 -251.5378
 -123.4705
  310.7120
  551.9391
  712.6926
  913.6662
 1065.7276
 1115.1643
 1117.5965
 1164.8993
 1233.1052
 1366.1529
 1422.7730
 1476.4391
 1547.2013
 1616.5603
 1699.7113
 1856.7301
 3191.1562
 3278.3740
 3304.4523
 3338.6105
 3388.4438
 3902.5155
[FR-NORM-COORD] # Displacements in bohr
vibration  1
      +0.020     +0.011     -0.018
      +0.001     -0.001     +0.006
      +0.046     -0.016     -0.049
      +0.003     -0.021     +0.025
      -0.014     +0.011     +0.015
      +0.018     +0.033     -0.023
      -0.004     +0.021     -0.071
      +0.014     -0.032     +0.032
      -0.026     -0.033     +0.042
      -0.253     -0.170     +0.942
vibration  2
      +0.044     +0.051     +0.090
      -0.024     -0.045     -0.119
      +0.138     +0.217     +0.473
      +0.028     -0.048     +0.112
      -0.140     -0.201     -0.514
      -0.006     -0.028     -0.106
      -0.042     +0.045     -0.076
      +0.176     -0.302     +0.164
      -0.026     +0.073     +0.363
      -0.066     +0.026     -0.166
vibration  3
      +0.271     +0.069     +0.005
      +0.048     -0.087     +0.047
      +0.455     -0.108     -0.196
      -0.006     -0.071     -0.081
      -0.018     +0.043     +0.229
      +0.300     +0.411     +0.116
      -0.264     +0.046     +0.042
      -0.038     +0.046     -0.102
      +0.142     -0.033     -0.160
      -0.369     -0.035     -0.206
vibration  4
      -0.069     +0.038     +0.041
      +0.084     +0.106     -0.115
      -0.440     +0.040     -0.224
      +0.090     -0.089     -0.026
      +0.153     +0.239     +0.203
      +0.055     -0.106     +0.523
      -0.068     -0.026     +0.030
      +0.325     -0.260     +0.025
      -0.069     -0.028     +0.227
      -0.192     -0.118     -0.027
vibration  5
      -0.001     +0.007     -0.035
      +0.144     +0.147     +0.117
      -0.149     +0.257     +0.329
      +0.030     -0.036     -0.010
      +0.024     +0.002     -0.262
      -0.129     -0.472     -0.528
      -0.095     -0.064     -0.009
      -0.209     +0.044     -0.051
      +0.082     -0.108     -0.175
      -0.172     -0.125     -0.038
vibration  6
      +0.139     -0.084     -0.006
      +0.179     +0.030     -0.100
      -0.068     -0.049     -0.078
      -0.269     +0.182     +0.086
      +0.332     -0.001     -0.047
      +0.218     -0.272     +0.263
      -0.056     -0.097     -0.027
      -0.137     -0.073     +0.132
      -0.402     +0.202     +0.242
      +0.357     +0.197     +0.141
vibration  7
      +0.067     +0.014     -0.050
      +0.003     -0.025     -0.047
      -0.346     +0.206     +0.029
      -0.079     -0.109     +0.100
      -0.291     +0.124     -0.017
      +0.174     -0.317     +0.364
      +0.060     +0.088     +0.000
      -0.346     +0.306     +0.010
      +0.104     -0.256     -0.321
      -0.137     -0.042     -0.100
vibration  8
      -0.025     -0.052     -0.108
      +0.003     +0.001     +0.008
      +0.206     +0.310     +0.741
      -0.013     -0.012     -0.035
      +0.097     +0.162     +0.395
      +0.066     +0.134     +0.244
      +0.001     +0.010     +0.009
      +0.049     -0.091     -0.011
      -0.038     +0.038     +0.067
      +0.028     +0.028     +0.037
vibration  9
      -0.058     -0.004     -0.072
      -0.014     -0.006     -0.005
      +0.007     +0.040     +0.043
      +0.162     +0.141     +0.164
      -0.043     -0.110     -0.225
      +0.092     +0.350     +0.522
      -0.087     -0.138     -0.073
      -0.134     +0.444     +0.075
      +0.344     -0.023     -0.262
      +0.036     -0.067     -0.027
vibration  10
      -0.037     -0.046     -0.069
      +0.050     +0.064     +0.105
      +0.096     -0.092     -0.063
      -0.045     -0.050     -0.056
      -0.016     -0.314     -0.672
      +0.101     +0.313     +0.457
      +0.029     +0.045     +0.030
      -0.045     -0.193     -0.032
      -0.133     -0.012     +0.086
      -0.086     -0.031     -0.019
vibration  11
      -0.068     -0.031     +0.047
      +0.070     +0.046     -0.087
      +0.336     -0.182     +0.032
      -0.035     -0.040     +0.081
      +0.447     -0.021     +0.101
      -0.125     +0.349     -0.190
      +0.027     +0.028     -0.008
      -0.120     +0.238     +0.029
      -0.246     -0.316     -0.175
      -0.316     -0.212     -0.165
vibration  12
      +0.055     -0.013     -0.017
      -0.049     -0.018     +0.058
      -0.082     +0.063     +0.038
      +0.013     +0.091     -0.017
      -0.145     -0.011     -0.014
      +0.074     -0.172     +0.047
      +0.026     -0.021     -0.017
      +0.462     +0.249     +0.012
      -0.544     -0.167     +0.084
      -0.405     -0.326     -0.182
vibration  13
      +0.021     +0.034     -0.014
      -0.033     -0.044     -0.016
      -0.148     +0.107     -0.011
      +0.018     +0.083     -0.015
      +0.242     -0.127     +0.064
      +0.024     -0.018     +0.010
      +0.043     -0.018     +0.030
      -0.552     -0.407     +0.001
      +0.110     +0.216     +0.098
      -0.439     -0.357     -0.108
vibration  14
      -0.004     -0.103     +0.045
      +0.028     +0.068     -0.049
      +0.317     -0.249     +0.017
      +0.035     +0.047     -0.011
      -0.703     +0.428     -0.006
      +0.003     -0.009     +0.019
      +0.008     -0.006     +0.009
      -0.280     -0.159     -0.010
      -0.052     +0.043     +0.048
      -0.120     -0.097     -0.028
vibration  15
      -0.019     -0.008     +0.008
      +0.042     +0.011     -0.004
      +0.013     -0.012     +0.016
      -0.123     -0.016     +0.001
      -0.103     +0.071     -0.023
      -0.033     +0.104     -0.049
      +0.037     -0.029     -0.001
      +0.398     +0.241     +0.016
      +0.600     +0.460     +0.078
      -0.287     -0.256     -0.080
vibration  16
      -0.001     -0.023     +0.012
      +0.099     -0.076     +0.007
      -0.571     +0.234     +0.028
      -0.008     +0.020     -0.003
      -0.271     +0.089     +0.018
      -0.094     +0.644     -0.256
      -0.000     +0.004     -0.000
      -0.019     -0.053     +0.009
      -0.150     -0.061     -0.000
      +0.030     +0.029     +0.016
vibration  17
      +0.008     -0.006     +0.002
      -0.004     +0.002     -0.005
      -0.042     +0.013     +0.000
      +0.042     -0.064     -0.033
      +0.035     -0.016     -0.002
      +0.002     +0.028     -0.015
      -0.004     -0.005     -0.003
      -0.356     +0.591     -0.143
      -0.164     +0.262     +0.628
      +0.032     +0.021     +0.010
vibration  18
      -0.212     +0.260     -0.054
      +0.256     -0.257     +0.040
      +0.536     -0.011     -0.117
      -0.021     +0.032     -0.009
      -0.368     -0.006     +0.096
      -0.184     -0.395     +0.205
      +0.005     -0.001     +0.001
      -0.064     +0.020     -0.006
      -0.229     -0.003     +0.114
      -0.028     -0.024     -0.028
vibration  19
      +0.000     -0.001     +0.001
      +0.000     +0.001     -0.001
      +0.004     +0.009     -0.006
      +0.014     -0.021     -0.072
      +0.001     -0.008     -0.001
      -0.009     -0.002     +0.002
      -0.001     -0.001     +0.000
      -0.090     +0.131     +0.969
      -0.066     +0.122     -0.103
      +0.005     -0.001     -0.002
vibration  20
      -0.001     +0.001     +0.000
      +0.004     +0.011     -0.005
      -0.005     -0.010     +0.005
      +0.035     -0.060     +0.051
      -0.051     -0.122     +0.063
      +0.019     +0.001     -0.005
      -0.001     +0.001     -0.001
      +0.027     -0.034     -0.141
      -0.430     +0.735     -0.473
      +0.015     -0.011     +0.005
vibration  21
      +0.021     -0.065     +0.022
      -0.009     -0.000     +0.002
      +0.287     +0.717     -0.383
      +0.001     -0.002     +0.003
      +0.036     +0.078     -0.041
      -0.474     -0.018     +0.130
      -0.000     +0.000     -0.000
      +0.004     -0.003     -0.018
      -0.011     +0.023     -0.015
      +0.002     +0.001     +0.001
vibration  22
      -0.017     -0.019     +0.012
      +0.026     +0.070     -0.035
      +0.066     +0.172     -0.091
      -0.006     +0.009     -0.006
      -0.350     -0.778     +0.409
      +0.180     +0.001     -0.046
      +0.000     -0.000     +0.000
      -0.002     +0.004     +0.013
      +0.066     -0.106     +0.066
      -0.003     +0.001     -0.000
vibration  23
      +0.083     +0.028     -0.033
      +0.007     +0.022     -0.011
      -0.134     -0.374     +0.196
      -0.002     +0.002     -0.001
      -0.095     -0.216     +0.113
      -0.824     +0.000     +0.214
      -0.000     -0.000     +0.000
      -0.001     +0.001     -0.000
      +0.014     -0.021     +0.013
      -0.003     -0.003     -0.001
vibration  24
      -0.000     -0.000     +0.000
      -0.000     -0.000     -0.000
      -0.003     +0.000     -0.002
      -0.003     +0.001     -0.001
      -0.001     -0.000     -0.000
      +0.001     +0.001     -0.001
      -0.034     +0.052     +0.001
      -0.002     -0.001     -0.001
      +0.006     -0.014     +0.009
      +0.578     -0.814     -0.011
