[Molden Format]
[FR-COORD] # Coordinates in bohr
  C    -2.788692    -1.008656    +0.038900 
  C    -1.540924    +1.135743    +0.041487 
  H    -1.799276    -2.772493    -0.000175 
  C    +1.300508    +1.291452    +0.001874 
  H    -2.506725    +2.924446    +0.058373 
  H    -4.815223    -1.063737    +0.059362 
  O    +2.368656    -1.211905    -0.138712 
  H    +1.911730    +2.386758    -1.619434 
  H    +1.941711    +2.281947    +1.683832 
  H    +3.742567    -1.413399    +1.040026 
[FREQ] # Frequencies in cm^-1
 -261.0855
  202.9467
  328.1586
  641.2697
  652.2182
  931.3228
 1076.9355
 1096.7634
 1141.2584
 1164.9527
 1219.9517
 1338.6021
 1427.6019
 1459.3333
 1564.3297
 1594.8895
 1679.4618
 1867.9590
 3170.6534
 3205.7112
 3317.2974
 3341.9436
 3426.2827
 3902.3373
[FR-NORM-COORD] # Displacements in bohr
vibration  1
      +0.007     -0.001     -0.001
      +0.011     -0.003     -0.035
      -0.002     -0.007     +0.068
      +0.009     +0.004     +0.029
      +0.012     -0.002     -0.087
      +0.006     +0.011     -0.032
      -0.059     -0.020     +0.042
      +0.039     +0.069     +0.078
      -0.047     -0.049     +0.084
      +0.621     +0.289     -0.697
vibration  2
      -0.002     +0.002     -0.115
      +0.004     -0.001     +0.155
      -0.009     +0.006     -0.474
      -0.001     +0.001     -0.125
      +0.010     -0.001     +0.532
      -0.001     +0.007     +0.045
      -0.011     -0.015     +0.103
      -0.166     -0.212     -0.334
      +0.160     +0.229     -0.323
      +0.161     +0.172     -0.066
vibration  3
      +0.304     -0.073     -0.006
      +0.021     +0.092     +0.002
      +0.575     +0.087     -0.022
      +0.010     +0.086     -0.004
      -0.126     +0.007     +0.007
      +0.314     -0.376     -0.005
      -0.291     -0.048     +0.007
      +0.098     +0.005     -0.023
      +0.102     +0.024     -0.006
      -0.345     -0.251     +0.033
vibration  4
      -0.004     -0.006     +0.027
      +0.017     -0.016     -0.120
      -0.053     -0.024     -0.408
      +0.010     +0.010     -0.024
      +0.018     -0.020     +0.402
      +0.000     +0.036     +0.657
      -0.013     +0.008     +0.023
      +0.250     +0.147     +0.163
      -0.247     -0.129     +0.161
      -0.033     +0.016     +0.049
vibration  5
      -0.064     -0.068     -0.005
      +0.197     -0.198     +0.018
      -0.540     -0.332     +0.078
      +0.117     +0.124     -0.000
      +0.114     -0.237     -0.082
      -0.086     +0.459     -0.115
      -0.153     +0.106     +0.005
      +0.020     +0.099     -0.060
      +0.131     +0.193     -0.044
      -0.190     -0.168     -0.007
vibration  6
      +0.151     +0.090     +0.001
      +0.210     -0.041     +0.011
      -0.056     -0.020     +0.017
      -0.294     -0.192     -0.015
      +0.390     +0.046     -0.016
      +0.150     +0.381     -0.055
      -0.028     +0.071     -0.006
      -0.370     -0.022     +0.063
      -0.388     -0.162     +0.013
      -0.085     +0.360     +0.103
vibration  7
      +0.071     -0.011     +0.019
      -0.007     +0.018     +0.045
      -0.290     -0.202     +0.054
      -0.077     +0.176     -0.087
      -0.341     -0.162     +0.071
      +0.050     +0.413     -0.282
      +0.049     -0.173     -0.003
      +0.133     +0.370     +0.137
      -0.164     -0.166     +0.147
      -0.010     +0.324     +0.183
vibration  8
      -0.054     -0.008     +0.048
      -0.005     -0.008     +0.059
      +0.144     +0.096     -0.005
      +0.085     -0.081     -0.155
      +0.142     +0.071     +0.100
      -0.051     -0.247     -0.487
      -0.041     +0.073     +0.031
      +0.318     +0.315     +0.198
      -0.128     -0.471     +0.165
      -0.084     +0.239     +0.101
vibration  9
      -0.006     +0.001     -0.108
      +0.002     -0.002     -0.008
      +0.023     -0.004     +0.835
      +0.006     -0.004     -0.016
      +0.022     +0.004     +0.491
      -0.001     -0.031     +0.203
      -0.004     +0.003     -0.001
      +0.031     +0.030     +0.017
      -0.015     -0.040     +0.015
      -0.020     +0.041     +0.025
vibration  10
      -0.004     -0.004     -0.108
      -0.004     +0.003     +0.126
      -0.011     -0.011     +0.051
      +0.017     -0.009     -0.046
      -0.029     -0.003     -0.678
      +0.003     -0.013     +0.629
      -0.008     +0.003     +0.009
      +0.040     +0.158     +0.076
      +0.048     -0.207     +0.060
      -0.032     +0.156     +0.065
vibration  11
      -0.104     +0.032     -0.003
      +0.106     -0.083     +0.013
      +0.391     +0.297     -0.007
      -0.053     +0.145     -0.007
      +0.519     +0.144     -0.060
      -0.080     -0.465     +0.017
      +0.012     -0.093     -0.004
      -0.173     +0.230     +0.006
      -0.234     +0.194     +0.037
      +0.003     -0.045     +0.031
vibration  12
      +0.027     +0.010     -0.013
      -0.020     +0.003     +0.066
      -0.018     -0.012     +0.070
      -0.015     -0.007     -0.065
      -0.035     -0.004     -0.080
      +0.025     +0.111     -0.040
      +0.024     +0.021     +0.021
      +0.248     -0.052     +0.011
      -0.617     +0.199     +0.051
      +0.108     -0.647     -0.206
vibration  13
      +0.020     +0.008     +0.003
      -0.023     +0.000     -0.033
      +0.001     +0.001     -0.011
      +0.006     -0.008     -0.042
      -0.012     +0.006     +0.046
      +0.019     +0.090     +0.016
      +0.017     +0.008     +0.053
      -0.612     +0.501     +0.049
      +0.237     -0.266     +0.009
      +0.063     -0.462     -0.097
vibration  14
      +0.032     -0.115     -0.001
      -0.062     +0.088     +0.002
      -0.363     -0.342     +0.000
      +0.002     +0.016     +0.001
      +0.682     +0.503     -0.007
      +0.014     -0.005     -0.002
      +0.001     -0.009     -0.002
      -0.002     +0.046     +0.012
      -0.013     +0.059     -0.010
      -0.004     +0.015     +0.011
vibration  15
      -0.022     -0.018     -0.000
      +0.036     -0.008     -0.000
      +0.036     +0.013     +0.006
      -0.159     +0.069     -0.025
      +0.102     +0.024     +0.003
      -0.022     -0.020     -0.004
      +0.028     +0.028     +0.027
      +0.512     -0.229     +0.031
      +0.576     -0.407     -0.036
      +0.086     -0.341     -0.120
vibration  16
      -0.003     +0.040     +0.001
      +0.092     +0.069     -0.000
      -0.528     -0.262     -0.000
      -0.027     -0.017     -0.005
      -0.256     -0.116     +0.003
      +0.004     -0.735     -0.011
      +0.005     -0.001     +0.005
      -0.037     +0.065     +0.042
      -0.023     +0.037     -0.036
      +0.015     -0.074     -0.022
vibration  17
      +0.006     +0.010     +0.000
      +0.002     -0.001     -0.001
      -0.069     -0.033     -0.001
      +0.037     +0.070     +0.001
      +0.021     +0.013     +0.001
      +0.006     -0.066     -0.000
      +0.002     +0.008     +0.002
      -0.281     -0.464     -0.438
      -0.237     -0.521     +0.411
      +0.001     -0.002     -0.000
vibration  18
      -0.191     -0.305     -0.001
      +0.254     +0.311     -0.001
      +0.493     +0.014     +0.000
      -0.023     -0.034     -0.002
      -0.427     +0.008     +0.008
      -0.261     +0.358     +0.009
      +0.007     +0.001     +0.002
      -0.202     -0.004     -0.048
      -0.191     -0.016     +0.050
      +0.011     -0.046     -0.013
vibration  19
      +0.000     +0.000     +0.000
      +0.002     -0.004     +0.000
      +0.002     -0.006     +0.000
      +0.032     +0.049     +0.042
      -0.016     +0.043     +0.000
      -0.008     +0.000     +0.000
      -0.001     +0.000     -0.001
      -0.086     -0.157     +0.282
      -0.292     -0.428     -0.782
      +0.011     +0.003     +0.008
vibration  20
      -0.000     -0.000     +0.000
      -0.001     +0.003     +0.001
      -0.001     +0.004     +0.000
      -0.015     -0.027     +0.084
      +0.013     -0.032     -0.000
      +0.004     +0.000     +0.001
      +0.000     -0.001     -0.001
      +0.290     +0.489     -0.753
      -0.112     -0.159     -0.249
      +0.004     +0.002     +0.010
vibration  21
      +0.031     +0.017     -0.000
      -0.033     +0.062     +0.001
      +0.115     -0.196     -0.004
      +0.002     +0.003     -0.001
      +0.401     -0.737     -0.007
      -0.486     -0.010     +0.005
      +0.000     -0.000     +0.000
      -0.014     -0.017     +0.028
      -0.010     -0.010     -0.020
      -0.001     -0.001     -0.000
vibration  22
      -0.043     -0.047     -0.000
      -0.015     +0.047     +0.000
      -0.250     +0.432     +0.009
      +0.002     +0.002     -0.001
      +0.244     -0.453     -0.004
      +0.691     +0.017     -0.007
      +0.000     +0.000     +0.000
      -0.014     -0.016     +0.024
      -0.011     -0.011     -0.019
      +0.000     +0.000     -0.000
vibration  23
      +0.076     -0.060     -0.002
      +0.005     -0.006     -0.000
      -0.400     +0.738     +0.016
      -0.000     -0.001     +0.000
      -0.039     +0.079     +0.001
      -0.527     -0.021     +0.005
      +0.000     +0.000     -0.000
      +0.000     +0.001     -0.002
      +0.000     +0.001     +0.002
      -0.000     +0.001     +0.000
vibration  24
      -0.000     -0.000     -0.000
      -0.000     -0.000     +0.000
      -0.000     -0.000     +0.000
      +0.000     +0.003     +0.002
      -0.001     +0.001     -0.000
      +0.000     -0.000     +0.000
      +0.048     -0.010     +0.040
      +0.002     +0.004     -0.002
      -0.009     -0.002     -0.012
      -0.754     +0.125     -0.642
