[Molden Format]
[FR-COORD] # Coordinates in bohr
  C    +3.536352    +0.120109    -0.352330 
  C    +1.332199    -0.701712    +0.446276 
  H    +3.794794    +2.024056    -1.009188 
  C    -1.022140    +0.895777    +0.597998 
  H    +1.137405    -2.624522    +1.083417 
  H    +5.176109    -1.071894    -0.389304 
  O    -3.156614    -0.264640    -0.650583 
  H    -1.468199    +1.279448    +2.565145 
  H    -0.735083    +2.678681    -0.347021 
  H    -3.605845    -1.826561    +0.183299 
[FREQ] # Frequencies in cm^-1
   84.0847
  280.0128
  349.6917
  482.7423
  704.2617
  977.4910
 1047.1211
 1115.1899
 1122.8851
 1170.2168
 1198.2956
 1364.1360
 1458.7185
 1492.1859
 1519.1596
 1619.1437
 1676.5494
 1861.8793
 3177.1841
 3286.4144
 3306.8207
 3318.0973
 3390.5480
 3859.0076
[FR-NORM-COORD] # Displacements in bohr
vibration  1
      +0.089     +0.032     +0.158
      -0.013     -0.029     -0.188
      +0.207     +0.122     +0.463
      +0.023     +0.023     -0.129
      -0.130     -0.116     -0.487
      +0.061     -0.005     +0.149
      -0.082     -0.035     +0.112
      +0.175     +0.163     -0.121
      -0.017     -0.044     -0.268
      -0.162     +0.127     +0.372
vibration  2
      +0.028     -0.031     +0.020
      -0.009     +0.026     -0.026
      +0.098     -0.045     +0.010
      -0.011     +0.031     -0.025
      -0.034     +0.035     +0.003
      -0.003     -0.077     +0.079
      -0.049     +0.014     +0.057
      +0.035     +0.045     -0.018
      -0.048     +0.019     -0.057
      +0.637     -0.504     -0.541
vibration  3
      +0.015     +0.095     +0.019
      +0.105     -0.133     +0.053
      -0.305     +0.039     -0.272
      +0.055     -0.145     -0.100
      +0.331     -0.047     +0.377
      +0.238     +0.394     +0.280
      -0.160     +0.126     +0.024
      +0.135     -0.018     -0.104
      +0.183     -0.196     -0.157
      -0.127     +0.014     -0.169
vibration  4
      -0.191     +0.059     +0.016
      -0.088     -0.147     +0.032
      -0.451     +0.173     +0.240
      +0.102     +0.046     -0.035
      -0.134     -0.196     -0.148
      -0.065     +0.249     -0.251
      +0.132     +0.008     +0.028
      +0.089     +0.347     -0.098
      +0.275     -0.108     -0.275
      +0.298     -0.084     -0.056
vibration  5
      +0.056     -0.000     -0.038
      +0.101     +0.001     +0.150
      +0.118     +0.138     +0.385
      -0.034     +0.004     +0.007
      +0.062     -0.135     -0.272
      -0.062     -0.146     -0.671
      -0.088     -0.001     -0.029
      -0.173     +0.277     -0.086
      +0.052     -0.133     -0.224
      -0.071     -0.041     -0.092
vibration  6
      -0.098     +0.061     +0.005
      -0.075     +0.150     +0.031
      +0.459     -0.017     +0.025
      +0.095     -0.214     -0.054
      +0.118     +0.104     -0.062
      -0.469     -0.452     +0.032
      +0.045     +0.044     +0.041
      +0.152     -0.012     -0.078
      +0.135     -0.285     -0.175
      -0.186     -0.003     -0.184
vibration  7
      -0.030     -0.015     +0.033
      -0.005     +0.049     +0.061
      -0.163     +0.042     +0.146
      +0.140     +0.008     -0.127
      -0.215     +0.097     +0.131
      -0.055     -0.027     -0.361
      -0.072     -0.021     -0.009
      +0.080     -0.576     -0.022
      +0.011     +0.295     +0.384
      +0.236     +0.020     +0.253
vibration  8
      +0.064     -0.015     +0.090
      +0.020     +0.001     +0.026
      -0.299     -0.115     -0.357
      -0.226     -0.093     -0.179
      -0.129     -0.046     -0.136
      +0.077     +0.023     -0.544
      +0.166     +0.098     +0.123
      -0.169     -0.263     -0.119
      -0.379     +0.045     +0.029
      -0.043     +0.075     -0.081
vibration  9
      +0.015     +0.050     +0.111
      -0.003     -0.001     -0.004
      -0.112     -0.240     -0.772
      +0.062     +0.026     +0.054
      -0.066     -0.125     -0.409
      -0.133     -0.143     -0.226
      -0.048     -0.028     -0.034
      +0.047     +0.101     +0.031
      +0.128     -0.014     -0.004
      +0.012     -0.031     +0.007
vibration  10
      +0.026     +0.023     +0.087
      -0.029     -0.035     -0.121
      -0.007     +0.016     +0.051
      +0.004     +0.016     +0.047
      +0.165     +0.216     +0.698
      -0.115     -0.150     -0.554
      -0.002     -0.011     -0.014
      +0.124     +0.109     +0.054
      -0.053     -0.055     -0.101
      -0.108     -0.017     -0.085
vibration  11
      +0.033     -0.065     -0.002
      -0.019     +0.095     +0.008
      -0.351     +0.018     +0.062
      +0.072     -0.035     +0.037
      -0.472     +0.123     -0.057
      +0.253     +0.252     -0.050
      -0.006     -0.016     -0.001
      +0.285     +0.086     +0.063
      -0.244     -0.090     -0.162
      -0.403     -0.082     -0.352
vibration  12
      -0.060     +0.050     -0.008
      +0.063     -0.098     +0.052
      +0.194     -0.002     -0.020
      +0.013     +0.102     -0.046
      +0.120     -0.137     -0.050
      -0.227     -0.189     +0.107
      +0.011     -0.021     +0.010
      +0.446     -0.129     +0.108
      -0.554     +0.228     +0.018
      -0.339     -0.069     -0.294
vibration  13
      +0.040     +0.095     -0.037
      -0.008     -0.090     +0.012
      +0.406     +0.026     -0.112
      +0.015     +0.010     -0.009
      -0.727     +0.042     +0.205
      -0.009     +0.003     +0.006
      +0.006     -0.011     +0.031
      -0.344     -0.040     -0.085
      +0.192     +0.024     +0.070
      -0.177     -0.051     -0.155
vibration  14
      +0.019     +0.039     -0.019
      +0.003     -0.028     +0.030
      +0.169     +0.015     -0.038
      -0.051     -0.061     +0.036
      -0.386     +0.013     +0.064
      -0.002     +0.001     -0.014
      -0.007     +0.036     -0.057
      +0.502     +0.046     +0.151
      -0.291     -0.163     -0.198
      +0.463     +0.117     +0.382
vibration  15
      +0.014     -0.002     -0.006
      -0.025     +0.014     +0.027
      +0.107     -0.001     +0.007
      -0.111     +0.023     -0.039
      +0.003     -0.005     -0.012
      +0.085     +0.089     -0.081
      +0.006     -0.031     +0.003
      +0.611     -0.011     +0.142
      +0.684     +0.043     +0.227
      -0.136     -0.047     -0.118
vibration  16
      -0.018     -0.024     +0.012
      -0.112     -0.005     +0.032
      +0.590     -0.131     -0.111
      +0.043     +0.007     -0.002
      +0.268     -0.077     -0.055
      +0.388     +0.516     -0.257
      +0.000     +0.002     -0.000
      -0.027     -0.081     -0.003
      -0.174     +0.001     -0.066
      -0.004     +0.000     -0.004
vibration  17
      -0.004     -0.001     +0.001
      +0.011     +0.007     +0.001
      -0.040     +0.003     -0.002
      -0.016     +0.079     +0.028
      +0.006     +0.001     -0.020
      -0.024     -0.026     +0.020
      +0.004     +0.002     +0.007
      -0.053     -0.694     +0.143
      +0.188     -0.308     -0.593
      -0.030     +0.000     -0.020
vibration  18
      +0.322     +0.106     -0.112
      -0.361     -0.073     +0.117
      -0.438     +0.308     +0.020
      +0.050     +0.010     -0.018
      +0.329     -0.243     -0.018
      -0.023     -0.459     +0.133
      +0.005     -0.004     +0.002
      +0.076     -0.095     +0.015
      -0.137     +0.036     -0.016
      -0.023     -0.007     -0.022
vibration  19
      -0.001     -0.000     +0.000
      +0.000     +0.002     -0.000
      +0.001     +0.008     -0.003
      -0.017     +0.025     +0.069
      -0.004     -0.029     +0.011
      +0.004     -0.004     +0.002
      +0.001     +0.001     +0.000
      +0.227     -0.169     -0.939
      -0.032     -0.141     +0.099
      -0.001     -0.003     +0.003
vibration  20
      +0.009     +0.003     -0.003
      +0.003     +0.032     -0.010
      -0.010     -0.105     +0.037
      -0.012     -0.063     +0.045
      -0.042     -0.376     +0.126
      -0.099     +0.077     -0.000
      +0.000     +0.002     -0.001
      +0.030     -0.035     -0.117
      +0.122     +0.771     -0.423
      -0.002     -0.019     +0.015
vibration  21
      -0.030     -0.005     +0.009
      -0.006     -0.059     +0.020
      +0.037     +0.299     -0.102
      -0.007     -0.029     +0.023
      +0.070     +0.702     -0.231
      +0.324     -0.243     -0.006
      +0.000     +0.001     -0.001
      +0.022     -0.021     -0.076
      +0.052     +0.359     -0.196
      +0.003     -0.009     +0.008
vibration  22
      +0.048     +0.038     -0.024
      -0.014     -0.042     +0.016
      -0.087     -0.686     +0.236
      -0.003     -0.005     +0.005
      +0.049     +0.471     -0.155
      -0.361     +0.274     +0.005
      +0.000     +0.000     +0.000
      +0.011     -0.009     -0.032
      +0.009     +0.059     -0.033
      +0.002     -0.002     +0.001
vibration  23
      -0.048     +0.083     -0.014
      +0.003     +0.014     -0.005
      -0.086     -0.551     +0.193
      +0.001     +0.002     -0.002
      -0.018     -0.145     +0.048
      +0.640     -0.456     -0.017
      -0.000     -0.000     +0.000
      -0.003     +0.002     +0.009
      -0.001     -0.029     +0.015
      -0.001     +0.001     -0.001
vibration  24
      +0.000     -0.000     -0.000
      -0.000     +0.000     +0.000
      +0.000     -0.000     -0.000
      +0.001     -0.002     +0.004
      -0.001     +0.000     +0.000
      +0.000     +0.000     -0.000
      -0.018     -0.054     +0.026
      +0.003     +0.001     -0.007
      +0.003     +0.020     -0.012
      +0.261     +0.855     -0.443
