[Molden Format]
[FR-COORD] # Coordinates in bohr
  C    -3.091758    -0.779598    +0.157758 
  C    -1.453407    +0.997636    -0.413423 
  H    -2.624149    -2.288190    +1.432996 
  C    +1.210172    +1.039957    +0.626827 
  H    -1.956975    +2.466020    -1.723071 
  H    -4.954584    -0.816627    -0.643680 
  O    +2.631306    -1.102715    -0.328541 
  H    +2.115976    +2.808770    +0.132875 
  H    +1.161665    +0.916138    +2.667090 
  H    +4.206533    -0.563959    -1.071389 
[FREQ] # Frequencies in cm^-1
 -350.3687
 -162.3241
  320.9149
  497.8055
  746.7609
  950.5063
 1035.1062
 1086.9127
 1119.0459
 1156.6118
 1234.4610
 1358.3591
 1445.9112
 1476.2860
 1559.1619
 1611.5783
 1693.0820
 1861.6493
 3207.7573
 3242.5240
 3312.9199
 3332.9145
 3391.6941
 3886.2150
[FR-NORM-COORD] # Displacements in bohr
vibration  1
      -0.006     +0.006     -0.015
      -0.010     +0.014     -0.008
      +0.006     -0.004     -0.032
      -0.009     -0.013     -0.002
      -0.021     +0.032     +0.015
      -0.012     +0.010     -0.001
      +0.049     -0.008     +0.073
      +0.012     -0.007     +0.061
      -0.022     -0.073     -0.011
      -0.439     +0.096     -0.881
vibration  2
      -0.099     +0.088     +0.081
      +0.035     -0.089     -0.091
      -0.284     +0.294     +0.394
      -0.038     -0.082     +0.080
      +0.223     -0.307     -0.408
      -0.031     +0.031     -0.072
      +0.092     +0.067     -0.070
      -0.069     +0.002     +0.325
      -0.156     -0.314     +0.061
      +0.069     +0.209     -0.017
vibration  3
      -0.208     +0.040     -0.018
      -0.073     -0.051     +0.067
      -0.286     -0.212     -0.289
      +0.030     -0.049     -0.109
      -0.151     +0.177     +0.347
      -0.289     +0.402     +0.147
      +0.218     +0.008     +0.044
      -0.099     -0.029     -0.276
      +0.120     +0.134     -0.093
      +0.241     +0.109     +0.166
vibration  4
      +0.081     +0.031     +0.060
      -0.074     +0.108     -0.126
      +0.482     +0.010     -0.107
      -0.094     -0.094     -0.040
      -0.196     +0.260     +0.098
      -0.089     -0.078     +0.469
      +0.067     -0.028     +0.026
      +0.006     -0.059     +0.271
      -0.342     -0.300     -0.059
      +0.109     +0.068     +0.184
vibration  5
      +0.014     +0.013     +0.027
      +0.154     -0.169     -0.110
      -0.002     -0.281     -0.318
      +0.010     +0.017     +0.021
      +0.005     +0.088     +0.236
      -0.203     +0.574     +0.504
      -0.104     +0.079     +0.015
      -0.040     +0.068     +0.105
      -0.127     -0.008     +0.019
      -0.099     -0.047     -0.051
vibration  6
      -0.136     -0.068     -0.010
      -0.136     +0.006     -0.124
      +0.086     -0.027     -0.035
      +0.248     +0.156     +0.113
      -0.246     +0.003     -0.100
      -0.256     -0.215     +0.258
      +0.010     -0.028     -0.018
      +0.359     +0.184     +0.413
      +0.070     -0.180     +0.087
      +0.117     -0.431     -0.085
vibration  7
      -0.044     +0.024     -0.044
      -0.013     -0.011     -0.048
      +0.376     +0.160     -0.027
      +0.013     -0.070     +0.122
      +0.272     +0.108     -0.024
      -0.183     -0.257     +0.305
      -0.005     +0.013     -0.021
      -0.095     -0.158     -0.407
      +0.310     +0.386     +0.158
      -0.073     +0.224     -0.016
vibration  8
      +0.053     +0.006     +0.017
      +0.024     -0.018     -0.027
      -0.055     -0.205     -0.205
      -0.230     +0.311     +0.192
      -0.062     -0.150     -0.137
      -0.009     +0.409     +0.144
      +0.142     -0.284     -0.129
      -0.213     +0.229     -0.043
      -0.113     +0.357     +0.181
      +0.020     +0.307     -0.053
vibration  9
      +0.041     -0.061     -0.084
      +0.006     -0.010     -0.019
      -0.284     +0.435     +0.620
      -0.009     +0.012     +0.009
      -0.164     +0.293     +0.386
      -0.086     +0.139     +0.204
      +0.005     -0.013     -0.006
      -0.011     +0.008     -0.006
      +0.008     +0.015     +0.012
      +0.000     +0.020     +0.002
vibration  10
      +0.048     -0.067     -0.087
      -0.046     +0.074     +0.089
      -0.062     +0.014     +0.047
      +0.008     -0.024     -0.022
      +0.172     -0.400     -0.528
      -0.222     +0.416     +0.516
      -0.004     +0.016     +0.012
      +0.024     -0.021     +0.015
      +0.035     -0.051     -0.023
      +0.003     -0.013     +0.012
vibration  11
      +0.056     -0.030     +0.055
      -0.063     +0.047     -0.085
      -0.326     -0.203     -0.023
      +0.056     -0.066     +0.062
      -0.403     -0.059     -0.078
      +0.139     +0.290     -0.174
      -0.015     +0.012     -0.007
      +0.381     -0.294     -0.158
      -0.024     +0.248     +0.083
      -0.114     +0.414     +0.073
vibration  12
      -0.069     -0.016     -0.024
      +0.062     -0.021     +0.058
      +0.084     +0.049     +0.015
      +0.021     +0.059     -0.072
      +0.197     +0.013     +0.045
      -0.129     -0.238     +0.125
      -0.021     -0.036     +0.003
      +0.511     -0.131     +0.164
      -0.334     +0.008     -0.082
      -0.164     +0.605     +0.141
vibration  13
      +0.007     +0.023     -0.008
      -0.004     -0.018     -0.022
      +0.073     +0.037     -0.022
      +0.016     +0.024     -0.026
      -0.200     -0.076     -0.014
      +0.012     +0.038     -0.013
      -0.029     -0.032     +0.034
      -0.183     +0.162     +0.067
      +0.653     -0.449     -0.051
      -0.125     +0.452     +0.158
vibration  14
      +0.002     -0.091     +0.070
      -0.031     +0.067     -0.069
      -0.363     -0.264     +0.006
      -0.019     +0.020     -0.015
      +0.737     +0.403     +0.008
      +0.013     +0.011     +0.003
      -0.002     -0.003     +0.009
      +0.010     +0.023     +0.022
      +0.220     -0.123     -0.023
      -0.009     +0.041     +0.022
vibration  15
      +0.011     -0.006     +0.007
      -0.019     +0.028     -0.002
      -0.094     -0.040     +0.008
      +0.143     -0.044     -0.011
      +0.051     +0.037     -0.026
      +0.011     -0.031     -0.003
      -0.024     -0.041     -0.002
      -0.661     +0.411     +0.085
      -0.428     +0.220     -0.005
      -0.109     +0.313     +0.052
vibration  16
      +0.006     +0.028     -0.015
      +0.101     +0.063     -0.006
      -0.559     -0.237     -0.097
      -0.027     -0.010     +0.011
      -0.282     -0.094     -0.046
      -0.157     -0.590     +0.349
      +0.003     +0.004     +0.000
      -0.079     -0.012     -0.080
      +0.058     -0.039     +0.004
      +0.017     -0.054     -0.010
vibration  17
      -0.003     +0.000     -0.000
      +0.008     +0.001     -0.005
      -0.013     -0.004     -0.004
      -0.040     -0.052     -0.050
      -0.037     -0.015     -0.004
      -0.007     -0.025     +0.008
      +0.002     -0.005     -0.004
      +0.073     +0.130     +0.684
      +0.360     +0.608     +0.029
      +0.008     -0.024     -0.006
vibration  18
      +0.239     +0.248     -0.072
      -0.287     -0.244     +0.053
      -0.486     -0.021     -0.209
      +0.034     +0.030     -0.011
      +0.373     -0.004     +0.155
      +0.143     -0.341     +0.301
      -0.001     -0.003     +0.001
      +0.207     -0.024     +0.108
      -0.043     -0.001     -0.009
      -0.011     +0.035     +0.007
vibration  19
      -0.000     -0.000     +0.000
      +0.000     +0.004     -0.003
      -0.002     +0.004     -0.004
      -0.031     -0.055     -0.024
      +0.011     -0.042     +0.034
      +0.002     -0.001     +0.001
      +0.001     -0.000     -0.000
      +0.378     +0.723     -0.229
      -0.024     -0.058     +0.520
      -0.011     -0.005     +0.002
vibration  20
      +0.001     +0.001     -0.001
      -0.002     +0.005     -0.004
      +0.006     -0.012     +0.013
      -0.021     -0.042     +0.081
      +0.022     -0.070     +0.065
      -0.018     +0.001     -0.009
      +0.001     +0.001     -0.001
      +0.232     +0.434     -0.117
      +0.014     +0.063     -0.849
      -0.011     -0.010     +0.008
vibration  21
      -0.043     -0.045     +0.013
      +0.012     -0.017     +0.018
      -0.155     +0.478     -0.408
      -0.002     -0.004     +0.004
      -0.087     +0.256     -0.228
      +0.612     +0.004     +0.269
      +0.000     +0.000     -0.000
      +0.018     +0.035     -0.011
      -0.002     +0.003     -0.043
      -0.001     -0.001     +0.001
vibration  22
      +0.006     +0.031     -0.019
      +0.013     -0.061     +0.051
      +0.093     -0.297     +0.252
      -0.005     -0.006     +0.005
      -0.219     +0.654     -0.580
      -0.091     +0.001     -0.041
      +0.000     +0.000     -0.000
      +0.044     +0.072     -0.019
      -0.000     +0.002     -0.038
      -0.001     -0.002     +0.002
vibration  23
      -0.069     +0.037     -0.057
      -0.004     +0.014     -0.012
      +0.137     -0.482     +0.402
      +0.001     +0.001     -0.001
      +0.047     -0.150     +0.132
      +0.674     +0.020     +0.285
      -0.000     -0.000     +0.000
      -0.009     -0.014     +0.004
      +0.003     +0.000     +0.010
      +0.001     -0.000     -0.001
vibration  24
      +0.000     +0.000     +0.000
      -0.000     -0.000     +0.000
      +0.000     +0.000     -0.001
      -0.000     -0.004     +0.000
      -0.000     +0.000     +0.000
      -0.000     +0.000     -0.000
      -0.055     -0.015     +0.027
      +0.012     +0.011     -0.006
      -0.000     -0.001     -0.007
      +0.864     +0.282     -0.411
