[Molden Format]
[FR-COORD] # Coordinates in bohr
  C    +3.571218    +0.111319    -0.261738 
  C    +1.310784    -0.672500    +0.405847 
  H    +3.904377    +2.010970    -0.899296 
  C    -1.009011    +0.971511    +0.440294 
  H    +1.006334    -2.587154    +1.008294 
  H    +5.186629    -1.112706    -0.213591 
  O    -3.128234    -0.428305    -0.579268 
  H    -1.395135    +1.565917    +2.367315 
  H    -0.720774    +2.649683    -0.689451 
  H    -4.449142    -0.614930    +0.661737 
[FREQ] # Frequencies in cm^-1
 -285.0993
   93.4388
  341.5144
  497.1648
  680.2875
  980.9336
 1034.7510
 1108.3659
 1117.8801
 1160.7176
 1247.0579
 1345.6512
 1447.7598
 1458.7709
 1539.0914
 1617.0487
 1674.5316
 1861.1173
 3177.7641
 3250.3748
 3311.6010
 3342.2664
 3390.4411
 3893.9983
[FR-NORM-COORD] # Displacements in bohr
vibration  1
      -0.007     +0.007     -0.007
      -0.011     +0.006     -0.023
      +0.004     +0.014     +0.018
      -0.004     +0.008     +0.020
      -0.038     +0.003     -0.052
      -0.013     -0.002     -0.018
      +0.045     -0.068     +0.022
      +0.005     -0.080     +0.050
      +0.003     +0.063     +0.094
      -0.411     +0.829     -0.328
vibration  2
      +0.079     +0.034     +0.170
      -0.007     -0.032     -0.199
      +0.187     +0.128     +0.504
      +0.019     +0.014     -0.143
      -0.113     -0.115     -0.523
      +0.051     -0.003     +0.157
      -0.085     -0.024     +0.133
      +0.184     +0.158     -0.155
      -0.045     -0.070     -0.286
      +0.009     +0.098     +0.251
vibration  3
      -0.014     +0.117     +0.008
      +0.088     -0.154     +0.056
      -0.353     +0.107     -0.206
      +0.067     -0.156     -0.067
      +0.301     -0.112     +0.296
      +0.211     +0.424     +0.170
      -0.129     +0.112     -0.003
      +0.128     -0.042     -0.088
      +0.220     -0.208     -0.107
      -0.138     +0.344     +0.021
vibration  4
      -0.205     +0.049     +0.005
      -0.107     -0.134     +0.038
      -0.457     +0.184     +0.269
      +0.101     +0.057     -0.020
      -0.190     -0.192     -0.210
      -0.081     +0.209     -0.329
      +0.175     -0.002     +0.022
      +0.065     +0.332     -0.115
      +0.247     -0.114     -0.239
      +0.168     -0.051     +0.005
vibration  5
      +0.058     -0.001     -0.040
      +0.088     +0.012     +0.146
      +0.121     +0.131     +0.381
      -0.035     -0.003     +0.013
      +0.061     -0.122     -0.293
      -0.041     -0.158     -0.662
      -0.077     -0.008     -0.030
      -0.181     +0.271     -0.106
      +0.049     -0.168     -0.206
      -0.111     +0.079     -0.051
vibration  6
      -0.110     +0.064     +0.004
      -0.076     +0.155     +0.042
      +0.437     -0.021     +0.067
      +0.122     -0.210     -0.067
      +0.109     +0.100     -0.053
      -0.503     -0.457     -0.044
      +0.018     +0.032     +0.009
      +0.112     -0.236     -0.057
      +0.179     -0.162     +0.023
      +0.146     +0.161     +0.162
vibration  7
      +0.001     -0.031     +0.028
      +0.010     +0.017     +0.056
      -0.267     +0.046     +0.104
      +0.089     +0.057     -0.105
      -0.264     +0.075     +0.090
      +0.098     +0.092     -0.347
      -0.060     -0.049     -0.019
      +0.014     -0.483     +0.052
      -0.041     +0.373     +0.337
      +0.216     +0.151     +0.317
vibration  8
      +0.056     +0.000     +0.099
      +0.022     -0.012     +0.028
      -0.197     -0.136     -0.448
      -0.243     -0.117     -0.167
      -0.026     -0.078     -0.178
      +0.041     -0.045     -0.525
      +0.164     +0.126     +0.107
      -0.220     -0.300     -0.098
      -0.298     +0.068     +0.076
      +0.058     +0.016     -0.060
vibration  9
      +0.012     +0.049     +0.115
      -0.006     +0.002     -0.012
      -0.092     -0.235     -0.778
      +0.074     +0.033     +0.060
      -0.081     -0.102     -0.388
      -0.111     -0.129     -0.251
      -0.051     -0.038     -0.033
      +0.080     +0.133     +0.027
      +0.106     -0.036     -0.034
      -0.036     -0.022     -0.003
vibration  10
      +0.011     +0.026     +0.084
      -0.021     -0.036     -0.110
      +0.032     +0.023     +0.089
      +0.006     +0.017     +0.024
      +0.204     +0.184     +0.702
      -0.125     -0.179     -0.552
      -0.005     -0.004     -0.005
      +0.126     +0.063     +0.033
      -0.038     -0.043     -0.070
      -0.077     -0.062     -0.091
vibration  11
      +0.041     -0.072     +0.009
      -0.032     +0.133     -0.007
      -0.366     +0.033     +0.074
      +0.054     -0.110     +0.036
      -0.499     +0.213     +0.004
      +0.265     +0.234     -0.124
      -0.005     +0.025     +0.001
      +0.340     +0.072     +0.039
      -0.210     -0.233     -0.202
      -0.205     -0.138     -0.243
vibration  12
      -0.045     +0.033     -0.014
      +0.045     -0.049     +0.073
      +0.136     +0.005     +0.021
      +0.019     +0.056     -0.071
      +0.055     -0.101     -0.087
      -0.174     -0.136     +0.054
      -0.011     +0.005     +0.025
      +0.595     -0.178     +0.125
      -0.318     +0.167     +0.013
      -0.336     -0.316     -0.378
vibration  13
      -0.046     -0.083     +0.031
      +0.015     +0.067     -0.010
      -0.364     -0.023     +0.063
      -0.003     +0.009     +0.022
      +0.691     -0.084     -0.165
      -0.004     -0.008     +0.022
      +0.007     -0.002     -0.036
      +0.216     +0.056     +0.056
      -0.413     -0.011     -0.105
      +0.172     +0.194     +0.180
vibration  14
      +0.006     +0.063     -0.019
      +0.023     -0.080     +0.016
      +0.221     +0.009     -0.055
      -0.004     -0.012     +0.048
      -0.411     +0.006     +0.095
      -0.084     -0.066     +0.047
      +0.016     +0.010     -0.048
      +0.091     +0.059     +0.052
      -0.658     -0.092     -0.210
      +0.278     +0.285     +0.285
vibration  15
      +0.022     +0.003     -0.007
      -0.039     +0.005     +0.026
      +0.177     -0.015     -0.011
      -0.139     +0.002     +0.005
      -0.033     -0.014     -0.004
      +0.132     +0.132     -0.085
      +0.011     -0.022     -0.040
      +0.729     +0.050     +0.175
      +0.458     -0.067     +0.055
      +0.218     +0.153     +0.220
vibration  16
      -0.018     -0.021     +0.010
      -0.113     -0.004     +0.027
      +0.592     -0.140     -0.079
      +0.056     +0.006     -0.005
      +0.243     -0.085     -0.041
      +0.406     +0.503     -0.228
      -0.000     +0.004     +0.006
      -0.097     -0.091     -0.010
      -0.203     +0.000     -0.064
      -0.042     -0.026     -0.045
vibration  17
      -0.001     -0.001     +0.001
      +0.009     +0.007     -0.000
      -0.047     +0.006     -0.005
      -0.012     +0.077     +0.023
      +0.008     +0.001     -0.020
      -0.025     -0.030     +0.022
      +0.003     +0.005     +0.005
      -0.096     -0.671     +0.206
      +0.159     -0.380     -0.563
      +0.005     +0.004     +0.004
vibration  18
      +0.333     +0.101     -0.094
      -0.368     -0.065     +0.097
      -0.440     +0.322     -0.001
      +0.053     +0.003     -0.016
      +0.297     -0.257     -0.002
      -0.042     -0.464     +0.133
      +0.005     -0.002     +0.002
      +0.052     -0.070     +0.013
      -0.148     +0.033     -0.011
      -0.010     -0.014     -0.015
vibration  19
      -0.001     -0.000     +0.000
      +0.000     +0.001     +0.000
      +0.001     +0.010     -0.004
      -0.014     +0.037     +0.063
      -0.003     -0.014     +0.005
      +0.006     -0.006     +0.002
      +0.001     +0.000     -0.001
      +0.194     -0.262     -0.909
      -0.040     -0.186     +0.156
      -0.010     +0.001     +0.011
vibration  20
      +0.002     +0.002     -0.001
      -0.000     +0.006     -0.001
      -0.003     -0.037     +0.014
      -0.014     -0.060     +0.063
      -0.015     -0.074     +0.026
      -0.014     +0.014     -0.003
      +0.000     +0.000     -0.002
      +0.047     -0.077     -0.202
      +0.128     +0.785     -0.549
      -0.005     -0.001     +0.014
vibration  21
      -0.057     -0.033     +0.021
      +0.006     -0.011     +0.002
      +0.122     +0.733     -0.245
      -0.001     -0.004     +0.003
      +0.024     +0.158     -0.049
      +0.465     -0.367     +0.018
      -0.000     +0.000     -0.000
      -0.000     -0.001     -0.003
      +0.005     +0.046     -0.031
      -0.000     +0.000     +0.001
vibration  22
      +0.003     +0.030     -0.010
      -0.018     -0.077     +0.025
      -0.048     -0.268     +0.090
      -0.003     -0.004     +0.005
      +0.142     +0.891     -0.279
      +0.094     -0.069     +0.003
      +0.000     +0.000     -0.000
      +0.010     -0.011     -0.028
      +0.005     +0.049     -0.034
      +0.002     -0.000     +0.003
vibration  23
      -0.048     +0.080     -0.015
      +0.006     +0.023     -0.008
      -0.099     -0.499     +0.171
      +0.001     +0.001     -0.002
      -0.042     -0.248     +0.078
      +0.638     -0.474     +0.016
      -0.000     -0.000     +0.000
      -0.003     +0.003     +0.010
      +0.000     -0.022     +0.014
      -0.001     -0.000     -0.001
vibration  24
      +0.000     +0.000     -0.000
      +0.000     -0.000     +0.000
      +0.000     +0.000     -0.000
      +0.001     +0.001     +0.004
      -0.000     -0.000     +0.000
      +0.001     -0.000     +0.000
      -0.048     -0.008     +0.041
      +0.009     -0.001     -0.015
      +0.001     +0.009     -0.004
      +0.731     +0.108     -0.671
