[Molden Format]
[FR-COORD] # Coordinates in bohr
  C    +0.807426    +0.565402    +0.179886 
  C    +0.024263    -1.930553    +0.251476 
  C    -2.517710    -2.520140    +0.097342 
  C    -4.297601    -0.616533    -0.126416 
  C    -3.521698    +1.880861    -0.198421 
  C    -0.977273    +2.466650    -0.050968 
  H    +1.420445    -3.383113    +0.428631 
  H    -3.107887    -4.457643    +0.153780 
  H    -6.267585    -1.072405    -0.247152 
  H    -4.890121    +3.364070    -0.378064 
  H    -0.383805    +4.405970    -0.121791 
  C    +3.597368    +1.175199    +0.413513 
  O    +5.175297    -0.894688    -0.387448 
  H    +4.033897    +2.888630    -0.624526 
  H    +4.079762    +1.480165    +2.373667 
  H    +4.960822    -1.181837    -2.179639 
[FREQ] # Frequencies in cm^-1
   91.0208
  203.6543
  268.1321
  412.1737
  448.1013
  477.8020
  532.7149
  657.7294
  711.7323
  813.7583
  846.8012
  875.8893
 1000.1444
 1042.4474
 1099.8546
 1106.1634
 1119.4359
 1140.0889
 1165.7919
 1192.7868
 1195.2798
 1247.3656
 1309.0700
 1322.7902
 1326.2496
 1354.9311
 1473.8650
 1501.1850
 1531.3869
 1626.4241
 1666.0061
 1676.2239
 1755.8767
 1777.9602
 3197.8907
 3267.3205
 3338.3812
 3352.5688
 3364.4280
 3380.1268
 3398.1078
 3859.7764
[FR-NORM-COORD] # Displacements in bohr
vibration  1
      +0.003     -0.015     +0.118
      -0.017     -0.012     +0.158
      -0.012     -0.001     +0.073
      +0.010     +0.007     -0.078
      +0.029     -0.003     -0.130
      +0.028     -0.014     -0.026
      -0.030     -0.018     +0.229
      -0.029     +0.006     +0.108
      +0.013     +0.015     -0.158
      +0.048     -0.001     -0.254
      +0.044     -0.021     -0.071
      +0.005     -0.059     +0.176
      -0.027     +0.074     -0.238
      -0.011     +0.127     +0.479
      +0.055     -0.422     +0.220
      -0.211     +0.290     -0.250
vibration  2
      -0.004     -0.091     -0.143
      -0.061     -0.074     -0.131
      -0.094     +0.002     +0.036
      -0.059     +0.053     +0.162
      +0.012     +0.025     +0.014
      +0.038     -0.054     -0.151
      -0.092     -0.113     -0.177
      -0.151     +0.021     +0.102
      -0.084     +0.109     +0.351
      +0.048     +0.064     +0.062
      +0.092     -0.073     -0.209
      -0.033     -0.049     +0.108
      +0.155     +0.129     +0.038
      -0.014     +0.095     +0.353
      -0.234     -0.247     +0.189
      +0.366     +0.318     -0.017
vibration  3
      -0.005     -0.142     +0.096
      -0.099     -0.113     +0.126
      -0.137     -0.002     -0.003
      -0.055     +0.059     -0.126
      +0.039     +0.035     +0.003
      +0.047     -0.086     +0.126
      -0.171     -0.184     +0.171
      -0.220     +0.022     -0.045
      -0.061     +0.129     -0.292
      +0.112     +0.098     -0.031
      +0.131     -0.110     +0.165
      -0.012     +0.039     -0.155
      +0.184     +0.147     -0.011
      -0.271     -0.044     -0.404
      +0.102     +0.355     -0.231
      +0.101     -0.110     +0.041
vibration  4
      +0.010     -0.038     +0.011
      +0.012     -0.044     -0.019
      +0.007     -0.014     -0.055
      +0.030     +0.019     +0.047
      +0.049     +0.012     +0.020
      +0.051     -0.025     -0.060
      -0.008     -0.061     +0.020
      -0.022     -0.007     -0.105
      +0.020     +0.046     +0.113
      +0.060     +0.025     +0.050
      +0.095     -0.042     -0.122
      -0.037     +0.039     +0.032
      -0.045     +0.067     +0.006
      -0.088     +0.044     +0.019
      -0.022     +0.049     +0.027
      -0.779     -0.502     +0.183
vibration  5
      +0.004     +0.092     -0.028
      -0.049     +0.112     +0.043
      -0.032     +0.027     -0.032
      -0.104     -0.050     -0.028
      -0.125     -0.037     +0.048
      -0.108     +0.042     -0.029
      -0.061     +0.107     +0.147
      +0.062     -0.002     -0.047
      -0.091     -0.100     -0.045
      -0.151     -0.051     +0.125
      -0.215     +0.074     -0.047
      +0.136     -0.078     +0.024
      +0.243     -0.028     -0.029
      +0.218     -0.021     +0.157
      +0.091     -0.234     +0.058
      -0.423     -0.586     +0.137
vibration  6
      +0.005     +0.002     -0.011
      +0.010     -0.004     -0.200
      -0.020     +0.011     +0.173
      -0.011     -0.004     +0.008
      +0.008     -0.014     -0.181
      -0.019     +0.009     +0.180
      +0.015     -0.022     -0.387
      -0.030     +0.022     +0.429
      -0.013     -0.004     +0.031
      +0.026     -0.024     -0.404
      -0.044     +0.026     +0.432
      +0.017     +0.002     +0.010
      +0.028     +0.015     +0.002
      +0.023     +0.006     +0.020
      +0.005     -0.013     +0.015
      -0.309     -0.260     +0.085
vibration  7
      -0.018     -0.020     -0.270
      +0.017     -0.018     +0.052
      +0.028     -0.014     +0.118
      +0.079     +0.004     -0.178
      +0.023     +0.031     +0.122
      +0.017     +0.031     +0.040
      +0.033     +0.027     +0.294
      -0.019     +0.008     +0.365
      +0.091     -0.000     -0.347
      -0.018     +0.022     +0.377
      +0.041     +0.032     +0.282
      -0.094     -0.036     -0.016
      -0.020     +0.029     +0.016
      +0.043     +0.066     +0.212
      -0.341     -0.236     +0.078
      -0.131     -0.118     +0.053
vibration  8
      -0.224     +0.000     +0.096
      +0.034     -0.029     +0.031
      +0.111     -0.084     -0.038
      +0.221     +0.031     +0.093
      -0.015     +0.130     -0.067
      -0.068     +0.202     +0.027
      +0.216     +0.132     -0.085
      +0.023     -0.060     -0.230
      +0.231     -0.012     +0.100
      -0.173     -0.041     -0.274
      +0.077     +0.152     -0.096
      -0.250     -0.219     -0.069
      +0.146     +0.006     -0.012
      -0.326     -0.189     -0.044
      -0.232     -0.188     -0.078
      +0.128     -0.246     +0.028
vibration  9
      +0.025     -0.143     +0.006
      +0.279     -0.157     +0.022
      +0.199     +0.288     +0.003
      -0.021     +0.146     -0.016
      -0.304     +0.183     -0.027
      -0.186     -0.252     -0.005
      +0.162     -0.263     +0.040
      +0.031     +0.339     +0.013
      +0.071     -0.265     +0.022
      -0.189     +0.292     -0.000
      -0.023     -0.299     +0.023
      -0.005     -0.006     +0.014
      +0.011     -0.026     -0.006
      -0.019     +0.000     +0.025
      -0.005     -0.038     +0.018
      -0.033     -0.036     -0.001
vibration  10
      +0.022     -0.003     -0.117
      -0.004     +0.018     +0.110
      +0.012     +0.011     -0.148
      -0.025     +0.003     +0.095
      +0.022     -0.023     -0.146
      +0.005     -0.016     +0.092
      -0.045     +0.025     +0.491
      +0.023     +0.011     -0.031
      -0.060     +0.029     +0.582
      +0.034     +0.006     +0.012
      -0.038     +0.013     +0.542
      -0.011     +0.002     -0.027
      -0.010     +0.004     +0.002
      +0.050     +0.032     +0.052
      -0.104     -0.074     +0.009
      +0.035     -0.003     -0.002
vibration  11
      -0.048     -0.006     +0.060
      -0.009     -0.092     -0.049
      -0.027     -0.101     -0.014
      +0.078     +0.014     -0.072
      -0.051     +0.072     -0.027
      -0.039     +0.068     -0.074
      +0.018     -0.043     +0.179
      -0.182     -0.042     +0.459
      +0.037     +0.051     +0.423
      -0.177     +0.021     +0.497
      -0.009     +0.073     +0.232
      +0.087     +0.051     +0.057
      +0.012     -0.024     -0.014
      +0.017     -0.038     -0.121
      +0.242     +0.193     -0.005
      -0.041     +0.106     -0.030
vibration  12
      -0.018     -0.007     -0.126
      -0.015     -0.140     +0.068
      -0.048     -0.137     +0.007
      +0.068     +0.037     +0.093
      -0.072     +0.088     -0.003
      -0.051     +0.067     +0.059
      +0.032     -0.116     -0.050
      -0.197     -0.110     -0.477
      +0.093     +0.039     -0.379
      -0.128     -0.020     -0.489
      +0.015     +0.044     -0.087
      +0.150     +0.124     +0.005
      -0.017     -0.023     +0.004
      +0.309     +0.158     +0.127
      +0.021     -0.044     +0.062
      -0.052     +0.035     -0.001
vibration  13
      +0.002     +0.003     +0.003
      +0.006     -0.009     -0.052
      +0.004     -0.008     -0.083
      -0.000     -0.000     -0.018
      -0.007     +0.004     +0.065
      -0.006     +0.008     +0.084
      -0.035     +0.006     +0.409
      -0.045     +0.025     +0.538
      -0.012     +0.009     +0.126
      +0.027     -0.024     -0.437
      +0.038     -0.029     -0.545
      +0.008     +0.001     -0.016
      -0.008     +0.005     +0.003
      +0.028     +0.036     +0.047
      -0.012     -0.052     -0.001
      +0.045     -0.020     +0.002
vibration  14
      +0.001     +0.025     +0.064
      +0.003     -0.031     +0.044
      -0.005     -0.020     +0.013
      -0.001     +0.013     -0.066
      -0.002     -0.004     -0.033
      +0.004     -0.008     +0.032
      +0.025     -0.060     -0.358
      -0.040     -0.012     -0.019
      -0.037     +0.057     +0.357
      -0.011     +0.022     +0.250
      +0.015     -0.022     -0.232
      +0.025     +0.031     -0.121
      -0.036     +0.028     +0.027
      +0.195     +0.263     +0.336
      -0.117     -0.452     -0.007
      +0.228     -0.298     +0.054
vibration  15
      +0.051     -0.000     +0.072
      +0.070     -0.053     -0.064
      +0.013     -0.049     -0.009
      -0.134     -0.045     +0.068
      -0.059     +0.067     +0.004
      +0.066     +0.105     -0.086
      +0.018     -0.059     +0.392
      +0.101     -0.081     +0.101
      -0.089     -0.149     -0.440
      -0.046     +0.087     -0.050
      +0.117     +0.118     +0.425
      +0.088     -0.163     -0.088
      -0.106     +0.142     +0.047
      +0.038     -0.057     +0.055
      +0.187     -0.268     -0.092
      +0.223     -0.198     +0.080
vibration  16
      +0.028     -0.013     -0.068
      +0.122     -0.057     +0.071
      +0.012     -0.069     +0.022
      -0.222     -0.067     -0.075
      -0.024     +0.082     -0.021
      +0.080     +0.136     +0.072
      +0.261     +0.020     -0.298
      +0.202     -0.144     -0.102
      -0.263     -0.073     +0.353
      +0.076     +0.202     +0.051
      +0.241     +0.081     -0.345
      -0.040     -0.015     +0.057
      +0.024     -0.021     -0.012
      -0.056     -0.147     -0.166
      -0.088     +0.243     +0.026
      -0.201     +0.198     -0.027
vibration  17
      -0.053     +0.041     +0.085
      +0.099     -0.066     -0.042
      +0.002     -0.039     -0.027
      -0.129     +0.019     +0.051
      +0.053     -0.013     +0.020
      +0.031     +0.012     -0.075
      +0.202     +0.066     +0.266
      +0.001     -0.040     +0.196
      -0.138     +0.146     -0.380
      +0.194     +0.111     -0.042
      -0.006     +0.038     +0.356
      -0.138     +0.214     -0.018
      +0.090     -0.144     -0.038
      -0.039     +0.354     +0.272
      -0.166     -0.181     +0.051
      +0.139     -0.196     -0.048
vibration  18
      -0.003     +0.003     +0.003
      -0.072     +0.184     -0.009
      +0.019     -0.198     -0.001
      +0.015     +0.007     +0.005
      -0.068     +0.183     -0.006
      +0.015     -0.203     +0.002
      +0.183     +0.429     -0.047
      +0.326     -0.293     +0.109
      +0.008     +0.012     -0.025
      +0.181     +0.414     -0.052
      +0.327     -0.298     +0.090
      +0.006     +0.009     -0.003
      -0.001     -0.001     +0.000
      -0.006     +0.025     +0.020
      +0.021     -0.034     -0.001
      +0.026     -0.042     +0.004
vibration  19
      -0.003     +0.001     +0.003
      +0.005     +0.004     -0.090
      -0.004     -0.006     +0.058
      -0.003     +0.003     +0.046
      +0.009     +0.001     -0.114
      -0.008     -0.005     +0.091
      -0.030     +0.042     +0.502
      +0.033     -0.028     -0.298
      +0.015     -0.004     -0.235
      -0.027     +0.053     +0.586
      +0.044     -0.042     -0.460
      -0.005     +0.008     +0.003
      +0.003     -0.008     -0.003
      -0.017     +0.018     +0.011
      +0.010     +0.002     +0.000
      +0.022     -0.001     -0.007
vibration  20
      -0.007     +0.013     +0.014
      +0.060     +0.001     -0.072
      -0.035     -0.023     +0.107
      -0.001     +0.019     -0.097
      +0.033     -0.003     +0.069
      -0.046     -0.026     -0.029
      +0.128     +0.121     +0.416
      -0.062     -0.037     -0.553
      -0.079     +0.208     +0.461
      +0.133     +0.038     -0.326
      -0.177     +0.016     +0.116
      +0.003     -0.019     -0.002
      -0.008     +0.011     +0.001
      -0.013     -0.014     -0.002
      +0.065     -0.029     -0.015
      +0.052     -0.041     +0.005
vibration  21
      -0.004     +0.025     -0.018
      +0.121     +0.004     +0.049
      -0.061     -0.056     -0.053
      -0.017     +0.063     +0.039
      +0.085     -0.028     -0.024
      -0.115     -0.047     +0.010
      +0.390     +0.221     -0.197
      -0.272     +0.010     +0.238
      -0.082     +0.419     -0.246
      +0.209     +0.101     +0.170
      -0.424     +0.036     -0.115
      +0.026     -0.077     +0.004
      -0.018     +0.041     +0.010
      +0.070     -0.145     -0.090
      +0.025     +0.035     -0.014
      -0.057     +0.055     +0.014
vibration  22
      -0.073     +0.169     -0.011
      -0.083     -0.111     -0.006
      +0.181     -0.067     +0.020
      -0.060     +0.229     -0.018
      -0.113     -0.154     +0.001
      +0.124     -0.065     +0.014
      -0.010     -0.039     +0.025
      +0.341     -0.117     +0.009
      -0.156     +0.650     -0.031
      -0.203     -0.243     -0.012
      +0.097     -0.060     +0.012
      -0.001     -0.049     +0.010
      +0.008     +0.024     +0.002
      +0.172     -0.180     -0.133
      +0.003     +0.087     -0.014
      -0.077     +0.084     +0.002
vibration  23
      +0.324     +0.055     -0.005
      +0.026     +0.024     +0.008
      -0.053     -0.105     +0.000
      +0.044     +0.040     +0.001
      -0.107     +0.042     -0.012
      +0.011     +0.005     +0.008
      -0.252     -0.261     -0.046
      -0.080     -0.105     +0.008
      -0.012     +0.268     -0.013
      -0.325     -0.148     -0.014
      -0.394     +0.141     -0.052
      -0.144     -0.009     +0.030
      +0.006     -0.027     -0.015
      -0.480     +0.078     +0.034
      +0.091     +0.016     -0.031
      +0.160     -0.190     -0.007
vibration  24
      -0.039     -0.030     -0.056
      +0.025     +0.027     +0.015
      -0.023     +0.027     -0.005
      -0.010     +0.006     -0.001
      -0.019     -0.039     -0.001
      +0.036     +0.001     +0.016
      +0.308     +0.291     -0.055
      -0.219     +0.088     -0.017
      -0.024     +0.068     -0.002
      -0.257     -0.261     -0.006
      +0.336     -0.092     -0.017
      +0.011     +0.018     +0.058
      -0.018     +0.004     -0.012
      -0.328     +0.082     +0.011
      +0.442     -0.041     -0.041
      +0.262     -0.319     +0.016
vibration  25
      -0.054     -0.036     -0.054
      -0.039     -0.028     +0.015
      +0.062     +0.008     +0.002
      -0.014     +0.003     -0.001
      +0.058     +0.019     +0.002
      -0.062     +0.024     +0.006
      -0.226     -0.213     -0.073
      +0.497     -0.121     +0.044
      -0.038     +0.108     -0.005
      +0.269     +0.211     +0.006
      -0.297     +0.090     -0.069
      +0.024     +0.017     +0.051
      -0.016     +0.004     -0.009
      -0.287     +0.082     +0.017
      +0.409     -0.028     -0.038
      +0.227     -0.259     +0.014
vibration  26
      -0.002     -0.117     +0.024
      +0.050     +0.057     -0.003
      -0.037     +0.023     -0.003
      +0.003     -0.028     +0.001
      +0.032     +0.026     +0.001
      -0.066     +0.026     -0.011
      -0.084     -0.068     +0.016
      +0.456     -0.125     +0.038
      -0.134     +0.577     -0.040
      -0.372     -0.347     -0.006
      +0.219     -0.060     +0.035
      +0.033     +0.011     -0.031
      -0.000     -0.007     +0.008
      +0.046     +0.054     +0.047
      -0.180     -0.019     +0.027
      -0.103     +0.125     -0.004
vibration  27
      -0.010     +0.082     -0.012
      +0.062     +0.015     +0.007
      -0.026     -0.009     -0.002
      +0.012     -0.053     +0.004
      +0.021     +0.007     +0.002
      -0.056     -0.018     -0.001
      -0.314     -0.350     -0.022
      -0.125     +0.018     -0.007
      -0.033     +0.146     -0.012
      +0.080     +0.058     +0.004
      +0.422     -0.167     +0.027
      -0.071     +0.006     +0.061
      -0.005     +0.025     -0.035
      +0.487     -0.263     -0.139
      +0.107     +0.095     +0.008
      +0.252     -0.290     -0.005
vibration  28
      +0.009     -0.049     +0.019
      -0.028     -0.011     -0.005
      -0.004     +0.009     -0.000
      -0.003     +0.021     -0.001
      -0.001     +0.010     -0.000
      +0.027     +0.004     -0.002
      +0.149     +0.162     +0.018
      +0.128     -0.030     +0.010
      +0.023     -0.090     +0.005
      -0.088     -0.068     +0.000
      -0.226     +0.082     -0.014
      +0.041     +0.008     +0.060
      -0.027     +0.016     -0.060
      +0.140     -0.111     -0.081
      -0.554     +0.349     +0.165
      +0.364     -0.460     -0.014
vibration  29
      +0.028     -0.052     +0.001
      -0.030     -0.028     -0.002
      -0.041     +0.020     -0.003
      -0.001     +0.025     -0.002
      +0.021     +0.031     +0.000
      +0.029     -0.009     +0.003
      +0.205     +0.197     +0.013
      +0.284     -0.076     +0.021
      +0.050     -0.197     +0.013
      -0.194     -0.168     -0.006
      -0.275     +0.080     -0.031
      -0.106     +0.038     +0.006
      +0.009     +0.015     +0.007
      +0.580     -0.204     -0.088
      +0.424     -0.206     -0.088
      -0.027     +0.037     +0.005
vibration  30
      -0.037     +0.133     -0.012
      +0.079     -0.028     +0.008
      -0.110     -0.034     -0.006
      -0.033     +0.119     -0.008
      +0.121     +0.030     +0.007
      -0.047     -0.067     +0.001
      -0.066     -0.187     -0.003
      +0.339     -0.186     +0.033
      +0.136     -0.629     +0.041
      -0.274     -0.355     -0.001
      +0.106     -0.129     +0.015
      +0.030     -0.039     -0.005
      +0.002     -0.005     +0.002
      -0.245     +0.085     +0.067
      -0.063     +0.098     -0.003
      -0.015     +0.022     -0.000
vibration  31
      +0.082     +0.024     +0.004
      -0.033     -0.079     +0.001
      -0.091     +0.054     -0.009
      +0.068     +0.012     +0.004
      -0.058     -0.084     +0.000
      -0.065     +0.051     -0.008
      +0.271     +0.200     +0.011
      +0.366     -0.077     +0.028
      +0.080     +0.027     +0.005
      +0.291     +0.229     +0.009
      +0.344     -0.063     +0.033
      -0.032     -0.052     -0.023
      +0.000     -0.004     -0.001
      +0.098     +0.197     +0.401
      +0.095     +0.441     -0.113
      -0.009     -0.002     -0.002
vibration  32
      -0.046     -0.022     -0.006
      +0.004     +0.038     +0.000
      +0.066     -0.024     +0.006
      -0.041     -0.020     -0.002
      +0.035     +0.056     -0.001
      +0.035     -0.030     +0.004
      -0.119     -0.070     -0.013
      -0.228     +0.063     -0.020
      -0.061     +0.027     -0.005
      -0.173     -0.130     -0.006
      -0.206     +0.036     -0.011
      -0.025     -0.055     -0.026
      +0.002     -0.006     -0.002
      +0.227     +0.254     +0.537
      +0.201     +0.581     -0.159
      -0.011     +0.003     -0.003
vibration  33
      +0.059     -0.265     +0.018
      +0.050     +0.191     -0.006
      +0.096     -0.167     +0.015
      -0.071     +0.312     -0.021
      -0.015     -0.194     +0.009
      -0.130     +0.149     -0.017
      -0.281     -0.109     -0.015
      -0.235     -0.089     -0.012
      +0.118     -0.518     +0.035
      +0.255     +0.028     +0.016
      +0.322     +0.022     +0.022
      -0.023     +0.030     -0.001
      -0.005     +0.001     -0.002
      +0.233     -0.015     +0.039
      +0.059     +0.013     -0.014
      +0.014     -0.015     -0.001
vibration  34
      -0.200     -0.051     -0.016
      +0.239     +0.137     +0.012
      -0.244     +0.004     -0.018
      +0.120     +0.026     +0.008
      -0.217     -0.108     -0.010
      +0.276     -0.016     +0.020
      -0.256     -0.347     -0.010
      +0.295     -0.169     +0.029
      +0.136     +0.035     +0.006
      +0.191     +0.284     -0.002
      -0.413     +0.197     -0.040
      +0.019     +0.001     +0.000
      +0.000     -0.001     +0.000
      +0.052     +0.038     +0.069
      +0.073     +0.065     -0.024
      -0.002     +0.002     +0.002
vibration  35
      +0.001     -0.000     +0.001
      +0.000     +0.000     +0.000
      +0.000     -0.000     -0.000
      -0.000     +0.000     -0.000
      -0.000     -0.000     -0.000
      +0.001     +0.002     -0.000
      +0.001     +0.001     -0.001
      +0.000     +0.002     +0.000
      +0.001     +0.001     +0.000
      -0.001     +0.000     +0.000
      -0.010     -0.024     +0.002
      -0.023     -0.067     +0.021
      +0.001     -0.000     -0.000
      +0.206     +0.790     -0.506
      +0.053     +0.017     +0.261
      -0.000     -0.001     +0.001
vibration  36
      -0.001     +0.001     -0.000
      +0.000     -0.000     +0.000
      -0.000     -0.000     -0.000
      -0.000     -0.000     -0.000
      -0.000     +0.000     -0.000
      +0.000     -0.001     +0.000
      -0.002     +0.002     -0.001
      +0.000     +0.000     +0.000
      +0.002     +0.000     +0.000
      +0.001     -0.001     +0.000
      +0.002     +0.005     -0.001
      -0.014     +0.006     -0.088
      +0.000     +0.000     +0.002
      -0.061     -0.207     +0.114
      +0.233     +0.133     +0.927
      -0.008     +0.002     -0.025
vibration  37
      +0.002     -0.001     +0.000
      +0.000     -0.001     +0.000
      +0.002     +0.007     -0.000
      -0.012     -0.002     -0.001
      +0.021     -0.026     +0.003
      +0.022     +0.074     -0.003
      -0.007     +0.009     -0.001
      -0.026     -0.086     +0.002
      +0.146     +0.033     +0.009
      -0.273     +0.301     -0.036
      -0.257     -0.853     +0.032
      +0.000     +0.002     -0.001
      -0.000     -0.000     +0.000
      -0.008     -0.020     +0.012
      -0.001     +0.000     -0.001
      +0.000     +0.000     -0.000
vibration  38
      -0.001     +0.001     -0.000
      +0.007     -0.009     +0.001
      +0.017     +0.052     -0.001
      -0.053     -0.013     -0.003
      +0.017     -0.015     +0.002
      -0.008     -0.025     +0.001
      -0.096     +0.103     -0.012
      -0.189     -0.613     +0.018
      +0.620     +0.145     +0.038
      -0.179     +0.189     -0.023
      +0.085     +0.278     -0.010
      -0.000     -0.001     +0.000
      +0.000     +0.000     -0.000
      +0.003     +0.007     -0.004
      +0.001     -0.000     -0.000
      -0.001     -0.000     -0.000
vibration  39
      +0.001     -0.001     +0.000
      +0.008     -0.011     +0.001
      +0.015     +0.052     -0.002
      +0.023     +0.001     +0.002
      -0.040     +0.041     -0.005
      +0.009     +0.024     -0.001
      -0.112     +0.122     -0.014
      -0.179     -0.593     +0.017
      -0.255     -0.053     -0.016
      +0.448     -0.481     +0.059
      -0.083     -0.266     +0.010
      +0.000     +0.000     -0.000
      +0.000     +0.000     +0.000
      -0.002     -0.005     +0.003
      -0.001     -0.000     -0.001
      -0.000     +0.000     -0.000
vibration  40
      -0.001     +0.001     -0.000
      +0.014     -0.017     +0.002
      +0.005     +0.029     -0.001
      +0.060     +0.015     +0.004
      +0.033     -0.038     +0.004
      -0.007     -0.015     +0.000
      -0.180     +0.191     -0.023
      -0.088     -0.306     +0.009
      -0.670     -0.156     -0.041
      -0.377     +0.413     -0.050
      +0.054     +0.166     -0.006
      -0.000     -0.001     +0.000
      +0.000     +0.000     +0.000
      +0.001     +0.004     -0.003
      +0.001     +0.000     +0.001
      -0.001     -0.000     -0.000
vibration  41
      +0.002     +0.002     +0.000
      +0.057     -0.059     +0.007
      -0.010     -0.026     +0.001
      -0.013     -0.002     -0.001
      -0.005     +0.006     -0.001
      +0.001     +0.003     -0.000
      -0.645     +0.675     -0.080
      +0.089     +0.280     -0.008
      +0.137     +0.030     +0.008
      +0.057     -0.063     +0.008
      -0.009     -0.031     +0.001
      +0.000     -0.001     +0.000
      +0.000     +0.001     -0.000
      -0.002     -0.001     -0.000
      -0.002     -0.001     -0.003
      -0.001     -0.000     +0.000
vibration  42
      -0.000     -0.000     -0.000
      -0.000     +0.000     +0.000
      -0.000     -0.000     +0.000
      -0.000     -0.000     +0.000
      +0.000     -0.000     +0.000
      +0.000     +0.000     +0.000
      -0.001     -0.001     +0.000
      +0.000     +0.000     -0.000
      +0.000     +0.000     -0.000
      +0.000     -0.000     +0.000
      -0.000     -0.000     -0.000
      +0.002     -0.002     +0.003
      +0.005     +0.012     +0.061
      +0.002     +0.003     -0.005
      -0.005     -0.002     -0.022
      -0.102     -0.171     -0.978
