[Molden Format]
[FR-COORD] # Coordinates in bohr
  C    +0.804307    -0.486249    +0.000017 
  C    -0.046263    +1.982180    +0.000002 
  C    -2.614228    +2.511688    +0.000004 
  C    -4.358525    +0.574192    -0.000005 
  C    -3.521737    -1.909027    +0.000000 
  C    -0.967311    -2.427097    -0.000010 
  H    +1.246879    +3.540576    +0.000010 
  H    -3.237080    +4.439419    +0.000003 
  H    -6.341740    +0.983224    -0.000014 
  H    -4.859183    -3.430528    -0.000006 
  H    -0.333069    -4.354848    -0.000009 
  C    +3.591164    -1.223466    +0.000010 
  O    +5.399071    +0.804303    -0.000013 
  H    +3.948349    -2.373938    +1.654504 
  H    +3.948341    -2.373967    -1.654470 
  H    +4.628775    +2.447442    -0.000021 
[FREQ] # Frequencies in cm^-1
 -522.0553
  -87.6604
  211.3734
  258.6060
  437.5436
  461.8717
  525.1308
  633.5985
  711.1539
  800.2745
  842.0728
  847.0478
  978.6582
 1045.0631
 1093.9701
 1129.1179
 1139.4232
 1149.8419
 1156.9248
 1190.5227
 1191.1247
 1235.7728
 1307.5951
 1324.3574
 1343.8506
 1387.8892
 1403.3357
 1493.5153
 1555.5510
 1624.4003
 1674.8927
 1689.6503
 1759.3175
 1779.9428
 3208.7574
 3235.8513
 3339.0641
 3350.9737
 3362.2389
 3371.4660
 3386.1814
 3960.6234
[FR-NORM-COORD] # Displacements in bohr
vibration  1
      -0.000     +0.000     -0.006
      -0.000     -0.000     -0.019
      -0.000     -0.000     -0.002
      -0.000     -0.000     +0.003
      -0.000     -0.000     +0.001
      +0.000     +0.000     +0.004
      -0.000     +0.000     -0.102
      -0.000     -0.000     -0.011
      -0.000     -0.000     +0.005
      +0.000     -0.000     -0.000
      +0.000     +0.000     +0.010
      +0.000     +0.000     +0.028
      +0.000     -0.000     -0.067
      -0.043     -0.013     +0.035
      +0.043     +0.013     +0.035
      +0.000     +0.000     +0.989
vibration  2
      -0.000     -0.000     +0.058
      +0.000     -0.000     +0.122
      +0.000     +0.000     +0.057
      +0.000     +0.000     -0.050
      +0.000     +0.000     -0.100
      +0.000     -0.000     -0.055
      +0.000     -0.000     +0.244
      +0.000     +0.000     +0.100
      +0.000     +0.000     -0.093
      +0.000     +0.000     -0.183
      +0.000     -0.000     -0.106
      +0.000     +0.000     +0.218
      -0.000     -0.000     -0.226
      -0.014     +0.343     +0.463
      +0.014     -0.343     +0.463
      -0.000     -0.000     -0.276
vibration  3
      +0.000     -0.000     +0.198
      +0.000     -0.000     +0.200
      +0.000     -0.000     -0.015
      +0.000     +0.000     -0.213
      -0.000     +0.000     -0.039
      -0.000     -0.000     +0.192
      +0.000     -0.000     +0.273
      +0.000     +0.000     -0.078
      +0.000     +0.000     -0.465
      -0.000     +0.000     -0.123
      -0.000     -0.000     +0.264
      +0.000     -0.000     -0.144
      -0.000     +0.000     -0.088
      +0.198     -0.227     -0.346
      -0.198     +0.227     -0.346
      -0.000     +0.000     +0.076
vibration  4
      -0.011     +0.211     +0.000
      -0.135     +0.174     +0.000
      -0.195     -0.001     +0.000
      -0.084     -0.106     -0.000
      +0.063     -0.057     -0.000
      +0.086     +0.124     +0.000
      -0.188     +0.228     +0.000
      -0.325     -0.043     +0.000
      -0.108     -0.223     -0.000
      +0.165     -0.147     -0.000
      +0.212     +0.165     +0.000
      -0.046     +0.015     -0.000
      +0.251     -0.255     -0.000
      -0.192     -0.036     -0.003
      -0.192     -0.036     +0.003
      +0.466     -0.142     -0.000
vibration  5
      +0.013     +0.132     +0.000
      +0.075     +0.156     +0.000
      +0.062     +0.039     -0.000
      +0.174     -0.068     +0.000
      +0.199     -0.056     +0.000
      +0.173     +0.064     -0.000
      +0.035     +0.186     +0.000
      -0.066     -0.003     -0.000
      +0.160     -0.140     +0.000
      +0.229     -0.079     +0.000
      +0.332     +0.118     -0.000
      -0.205     -0.107     +0.000
      -0.351     -0.100     +0.000
      -0.265     -0.127     +0.004
      -0.265     -0.127     -0.004
      -0.432     -0.150     +0.000
vibration  6
      +0.000     +0.000     +0.023
      +0.000     +0.000     -0.196
      +0.000     +0.000     +0.190
      +0.000     -0.000     +0.014
      +0.000     -0.000     -0.209
      +0.000     -0.000     +0.187
      +0.000     +0.000     -0.493
      -0.000     -0.000     +0.432
      +0.000     +0.000     +0.040
      +0.000     +0.000     -0.478
      +0.000     -0.000     +0.419
      -0.000     -0.000     +0.007
      -0.000     -0.000     -0.001
      +0.005     +0.003     +0.008
      -0.005     -0.003     +0.008
      -0.000     -0.000     -0.100
vibration  7
      +0.000     -0.000     +0.286
      -0.000     -0.000     -0.035
      -0.000     -0.000     -0.137
      -0.000     +0.000     +0.191
      -0.000     +0.000     -0.110
      -0.000     +0.000     -0.069
      -0.000     -0.000     -0.284
      +0.000     -0.000     -0.417
      -0.000     +0.000     +0.364
      +0.000     +0.000     -0.369
      -0.000     +0.000     -0.368
      +0.000     -0.000     +0.025
      +0.000     +0.000     -0.026
      +0.216     -0.162     -0.138
      -0.216     +0.162     -0.138
      +0.000     +0.000     -0.035
vibration  8
      -0.195     -0.001     +0.000
      +0.051     +0.012     +0.000
      +0.115     +0.055     -0.000
      +0.205     -0.020     +0.000
      -0.016     -0.123     -0.000
      -0.057     -0.185     -0.000
      +0.234     -0.149     -0.000
      +0.035     +0.028     -0.000
      +0.216     +0.032     +0.000
      -0.171     +0.012     -0.000
      +0.062     -0.145     -0.000
      -0.254     +0.246     -0.000
      +0.092     -0.014     -0.000
      -0.269     +0.221     -0.015
      -0.269     +0.221     +0.015
      +0.505     +0.186     -0.000
vibration  9
      +0.041     +0.139     +0.000
      +0.275     +0.156     +0.000
      +0.204     -0.297     -0.000
      -0.036     -0.142     -0.000
      -0.299     -0.177     -0.000
      -0.188     +0.259     +0.000
      +0.115     +0.286     +0.000
      +0.055     -0.345     +0.000
      +0.050     +0.274     -0.000
      -0.168     -0.293     -0.000
      -0.041     +0.306     -0.000
      -0.004     +0.001     +0.000
      +0.005     +0.028     -0.000
      -0.008     +0.010     +0.004
      -0.008     +0.010     -0.004
      +0.001     +0.024     +0.000
vibration  10
      +0.000     -0.000     +0.098
      -0.000     -0.000     -0.072
      +0.000     -0.000     +0.143
      +0.000     +0.000     -0.093
      +0.000     +0.000     +0.140
      +0.000     +0.000     -0.085
      +0.000     -0.000     -0.563
      +0.000     -0.000     -0.027
      +0.000     +0.000     -0.579
      +0.000     +0.000     -0.003
      +0.000     +0.000     -0.515
      -0.000     +0.000     +0.018
      -0.000     -0.000     +0.000
      +0.057     -0.025     -0.014
      -0.057     +0.025     -0.014
      +0.000     +0.000     -0.051
vibration  11
      -0.111     +0.021     -0.000
      -0.029     +0.252     +0.000
      -0.059     +0.235     +0.000
      +0.186     -0.053     +0.000
      -0.124     -0.177     +0.000
      -0.097     -0.142     +0.000
      +0.027     +0.215     -0.000
      -0.374     +0.138     -0.000
      +0.178     -0.072     -0.000
      -0.324     -0.007     -0.000
      +0.046     -0.100     -0.000
      +0.208     -0.195     -0.000
      +0.040     +0.061     +0.000
      +0.242     -0.150     +0.020
      +0.242     -0.150     -0.020
      -0.353     -0.124     +0.000
vibration  12
      -0.000     +0.000     +0.107
      +0.000     +0.000     -0.094
      -0.000     +0.000     -0.003
      +0.000     -0.000     -0.100
      -0.000     -0.000     +0.003
      -0.000     -0.000     -0.085
      -0.000     +0.000     +0.202
      -0.000     +0.000     +0.579
      +0.000     -0.000     +0.408
      -0.000     -0.000     +0.542
      +0.000     -0.000     +0.139
      +0.000     -0.000     +0.049
      +0.000     +0.000     -0.015
      +0.153     -0.145     -0.086
      -0.153     +0.145     -0.086
      -0.000     -0.000     +0.002
vibration  13
      -0.000     +0.000     +0.003
      -0.000     +0.000     +0.096
      +0.000     -0.000     +0.053
      +0.000     -0.000     -0.010
      -0.000     +0.000     -0.073
      +0.000     -0.000     -0.075
      +0.000     +0.000     -0.571
      +0.000     -0.000     -0.392
      -0.000     +0.000     +0.095
      -0.000     -0.000     +0.495
      -0.000     -0.000     +0.491
      +0.000     -0.000     -0.005
      -0.000     +0.000     +0.002
      -0.012     +0.015     +0.010
      +0.012     -0.015     +0.010
      -0.000     -0.000     -0.038
vibration  14
      -0.000     -0.000     +0.009
      -0.000     -0.000     +0.085
      +0.000     +0.000     -0.043
      +0.000     -0.000     -0.092
      -0.000     +0.000     -0.001
      -0.000     +0.000     +0.083
      +0.000     -0.000     -0.437
      +0.000     +0.000     +0.247
      -0.000     -0.000     +0.564
      +0.000     -0.000     +0.023
      +0.000     +0.000     -0.493
      -0.000     -0.000     -0.076
      +0.000     +0.000     +0.018
      -0.146     +0.212     +0.105
      +0.146     -0.212     +0.105
      -0.000     +0.000     +0.009
vibration  15
      -0.139     -0.020     -0.000
      -0.195     -0.125     -0.000
      +0.033     -0.121     +0.000
      +0.302     -0.108     +0.000
      +0.083     +0.154     -0.000
      -0.097     +0.246     -0.000
      -0.235     -0.113     +0.000
      -0.119     -0.191     -0.000
      +0.310     -0.185     -0.000
      +0.036     +0.226     +0.000
      -0.221     +0.226     +0.000
      -0.131     -0.199     +0.000
      +0.160     +0.154     -0.000
      -0.132     -0.144     +0.025
      -0.132     -0.144     -0.025
      -0.345     -0.059     +0.000
vibration  16
      +0.073     -0.004     -0.000
      -0.196     -0.164     -0.000
      -0.015     +0.060     -0.000
      +0.260     -0.056     +0.000
      -0.107     -0.053     -0.000
      -0.067     +0.203     -0.000
      -0.146     -0.207     +0.000
      -0.088     +0.026     +0.000
      +0.288     +0.028     -0.000
      -0.199     +0.037     -0.000
      -0.053     +0.214     +0.000
      +0.242     +0.239     +0.000
      -0.187     -0.202     +0.000
      +0.255     +0.182     -0.028
      +0.255     +0.182     +0.028
      +0.395     +0.048     -0.000
vibration  17
      +0.016     +0.002     +0.000
      +0.012     +0.140     +0.000
      -0.018     -0.190     -0.000
      +0.061     -0.017     -0.000
      +0.045     +0.187     +0.000
      -0.036     -0.144     -0.000
      -0.241     +0.359     -0.000
      -0.353     -0.306     +0.000
      +0.073     -0.015     +0.000
      -0.237     +0.445     -0.000
      -0.359     -0.251     +0.000
      +0.052     +0.065     +0.000
      -0.039     -0.051     +0.000
      +0.053     +0.045     -0.010
      +0.053     +0.045     +0.010
      +0.053     -0.012     -0.000
vibration  18
      +0.000     +0.000     -0.041
      -0.000     -0.000     +0.094
      +0.000     +0.000     -0.099
      -0.000     +0.000     +0.004
      -0.000     -0.000     +0.097
      +0.000     +0.000     -0.075
      +0.000     -0.000     -0.433
      +0.000     +0.000     +0.507
      -0.000     +0.000     -0.016
      +0.000     -0.000     -0.531
      +0.000     +0.000     +0.406
      -0.000     -0.000     +0.056
      +0.000     +0.000     -0.012
      +0.064     -0.158     -0.068
      -0.064     +0.158     -0.068
      -0.000     -0.000     -0.050
vibration  19
      +0.000     +0.000     -0.135
      -0.000     -0.000     +0.023
      -0.000     -0.000     +0.060
      +0.000     +0.000     -0.068
      -0.000     -0.000     +0.000
      -0.000     -0.000     +0.076
      -0.000     +0.000     -0.064
      +0.000     -0.000     -0.352
      -0.000     +0.000     +0.384
      -0.000     +0.000     -0.046
      +0.000     -0.000     -0.323
      -0.000     +0.000     +0.163
      +0.000     +0.000     -0.034
      +0.179     -0.453     -0.196
      -0.179     +0.453     -0.196
      -0.000     -0.000     -0.086
vibration  20
      -0.000     -0.000     +0.048
      +0.000     +0.000     -0.049
      -0.000     +0.000     +0.088
      -0.000     -0.000     -0.109
      +0.000     +0.000     +0.106
      -0.000     +0.000     -0.072
      +0.000     -0.000     +0.217
      -0.000     +0.000     -0.437
      -0.000     -0.000     +0.533
      +0.000     -0.000     -0.524
      -0.000     -0.000     +0.340
      -0.000     -0.000     -0.048
      -0.000     +0.000     +0.010
      -0.040     +0.132     +0.055
      +0.040     -0.132     +0.055
      +0.000     +0.000     +0.034
vibration  21
      -0.002     -0.073     -0.000
      +0.132     +0.026     +0.000
      -0.059     +0.083     -0.000
      -0.018     -0.101     +0.000
      +0.070     +0.047     -0.000
      -0.102     +0.070     +0.000
      +0.374     -0.176     -0.000
      -0.271     +0.024     +0.000
      -0.113     -0.561     -0.000
      +0.224     -0.079     +0.000
      -0.431     -0.030     -0.000
      -0.010     +0.001     +0.000
      -0.025     +0.001     -0.000
      +0.097     +0.023     -0.007
      +0.097     +0.023     +0.007
      +0.280     +0.135     -0.000
vibration  22
      -0.151     -0.173     -0.000
      -0.118     +0.148     -0.000
      +0.219     +0.039     +0.000
      -0.100     -0.196     -0.000
      -0.117     +0.144     +0.000
      +0.186     +0.044     +0.000
      -0.012     +0.055     -0.000
      +0.415     +0.103     -0.000
      -0.141     -0.383     -0.000
      -0.159     +0.181     -0.000
      +0.354     +0.101     +0.000
      +0.011     -0.011     +0.000
      -0.022     -0.014     -0.000
      +0.211     +0.048     -0.004
      +0.211     +0.048     +0.004
      +0.294     +0.128     -0.000
vibration  23
      +0.325     -0.061     +0.000
      +0.006     -0.022     -0.000
      -0.054     +0.096     -0.000
      +0.046     -0.061     +0.000
      -0.156     -0.015     -0.000
      +0.070     +0.002     -0.000
      -0.214     +0.178     +0.000
      -0.109     +0.086     +0.000
      -0.014     -0.336     -0.000
      -0.615     +0.377     +0.000
      -0.054     -0.054     +0.000
      -0.170     -0.022     -0.000
      +0.029     +0.045     -0.000
      -0.171     -0.039     -0.014
      -0.171     -0.039     +0.014
      +0.080     +0.079     -0.000
vibration  24
      -0.007     -0.040     -0.000
      +0.004     +0.006     +0.000
      -0.043     -0.024     -0.000
      +0.009     +0.033     +0.000
      -0.020     +0.011     +0.000
      +0.061     +0.017     +0.000
      +0.191     -0.160     -0.000
      -0.513     -0.176     -0.000
      +0.094     +0.445     -0.000
      -0.021     +0.012     +0.000
      +0.266     +0.083     +0.000
      -0.037     -0.077     +0.000
      -0.025     +0.029     -0.000
      +0.149     -0.022     +0.000
      +0.149     -0.022     -0.000
      +0.478     +0.257     -0.000
vibration  25
      -0.061     +0.073     +0.000
      +0.075     -0.064     +0.000
      -0.046     -0.032     +0.000
      -0.013     +0.007     -0.000
      -0.002     +0.028     -0.000
      +0.003     -0.001     -0.000
      +0.304     -0.262     +0.000
      -0.091     -0.048     +0.000
      -0.086     -0.348     -0.000
      -0.431     +0.407     +0.000
      +0.500     +0.164     +0.000
      +0.049     +0.013     -0.000
      +0.002     -0.007     -0.000
      -0.058     -0.000     +0.013
      -0.058     -0.000     -0.013
      -0.174     -0.093     +0.000
vibration  26
      -0.006     +0.093     -0.000
      -0.009     -0.011     +0.000
      -0.024     -0.040     +0.000
      +0.017     +0.049     -0.000
      +0.054     -0.040     -0.000
      -0.068     -0.024     +0.000
      -0.214     +0.157     -0.000
      +0.517     +0.130     +0.000
      -0.047     -0.268     +0.000
      -0.128     +0.120     +0.000
      +0.057     +0.018     -0.000
      -0.005     -0.095     +0.000
      -0.039     +0.028     +0.000
      +0.164     -0.046     +0.002
      +0.164     -0.046     -0.002
      +0.587     +0.316     -0.000
vibration  27
      -0.000     -0.000     -0.049
      +0.000     +0.000     +0.008
      +0.000     +0.000     +0.000
      -0.000     -0.000     -0.000
      -0.000     +0.000     -0.001
      +0.000     +0.000     +0.008
      +0.000     -0.000     -0.031
      -0.000     -0.000     -0.002
      +0.000     +0.000     +0.005
      +0.000     -0.000     -0.009
      +0.000     +0.000     -0.017
      -0.000     +0.000     -0.016
      +0.000     -0.000     +0.031
      +0.640     +0.286     +0.033
      -0.640     -0.286     +0.033
      -0.000     -0.000     +0.094
vibration  28
      +0.014     +0.107     +0.000
      -0.067     +0.019     -0.000
      +0.021     -0.011     +0.000
      -0.018     -0.062     -0.000
      -0.015     -0.001     -0.000
      +0.066     -0.017     -0.000
      +0.424     -0.407     +0.000
      +0.164     +0.032     +0.000
      +0.034     +0.192     +0.000
      -0.141     +0.105     +0.000
      -0.495     -0.207     -0.000
      +0.064     -0.035     -0.000
      -0.020     +0.025     +0.000
      -0.298     -0.112     +0.025
      -0.298     -0.112     -0.025
      +0.155     +0.099     -0.000
vibration  29
      -0.008     -0.040     -0.000
      +0.010     -0.017     +0.000
      +0.038     +0.011     +0.000
      +0.009     +0.032     +0.000
      -0.030     +0.027     -0.000
      -0.025     -0.016     -0.000
      -0.208     +0.171     -0.000
      -0.206     -0.068     -0.000
      -0.041     -0.212     -0.000
      +0.192     -0.168     -0.000
      +0.228     +0.062     +0.000
      +0.100     +0.000     -0.000
      -0.020     +0.028     +0.000
      -0.519     -0.183     +0.014
      -0.519     -0.183     -0.014
      +0.251     +0.156     -0.000
vibration  30
      -0.041     -0.132     -0.000
      +0.084     +0.025     -0.000
      -0.117     +0.029     -0.000
      -0.023     -0.111     -0.000
      +0.113     -0.030     -0.000
      -0.036     +0.068     +0.000
      -0.114     +0.213     -0.000
      +0.353     +0.197     +0.000
      +0.124     +0.605     +0.000
      -0.280     +0.333     +0.000
      +0.065     +0.116     +0.000
      +0.041     +0.033     -0.000
      -0.000     +0.005     +0.000
      -0.219     -0.084     -0.019
      -0.219     -0.084     +0.019
      +0.040     +0.026     -0.000
vibration  31
      +0.097     -0.010     +0.000
      -0.030     +0.079     -0.000
      -0.111     -0.050     -0.000
      +0.076     -0.055     +0.000
      -0.072     +0.124     -0.000
      -0.085     -0.076     -0.000
      +0.353     -0.236     +0.000
      +0.437     +0.120     +0.000
      +0.122     +0.072     +0.000
      +0.379     -0.257     -0.000
      +0.459     +0.091     +0.000
      -0.023     +0.030     -0.000
      +0.002     +0.004     -0.000
      +0.018     -0.162     -0.129
      +0.018     -0.162     +0.129
      -0.052     -0.027     +0.000
vibration  32
      -0.018     +0.004     -0.000
      -0.009     -0.005     +0.000
      +0.031     +0.002     +0.000
      -0.017     +0.021     -0.000
      +0.019     -0.031     -0.000
      +0.011     +0.016     +0.000
      -0.018     -0.001     -0.000
      -0.090     -0.038     -0.000
      -0.034     -0.042     +0.000
      -0.081     +0.054     +0.000
      -0.079     -0.010     +0.000
      -0.020     +0.074     -0.000
      +0.004     +0.008     -0.000
      +0.142     -0.534     -0.419
      +0.142     -0.534     +0.419
      -0.016     -0.002     +0.000
vibration  33
      +0.044     +0.239     +0.000
      +0.030     -0.182     +0.000
      +0.150     +0.179     +0.000
      -0.100     -0.291     -0.000
      +0.035     +0.143     -0.000
      -0.145     -0.125     -0.000
      -0.365     +0.141     +0.000
      -0.349     +0.041     -0.000
      +0.055     +0.504     +0.000
      +0.143     +0.076     -0.000
      +0.296     +0.016     -0.000
      -0.016     -0.027     -0.000
      -0.006     +0.001     +0.000
      +0.144     -0.035     -0.036
      +0.144     -0.035     +0.036
      +0.057     +0.036     -0.000
vibration  34
      -0.182     +0.097     -0.000
      +0.229     -0.155     +0.000
      -0.207     +0.010     -0.000
      +0.109     -0.050     +0.000
      -0.225     +0.121     +0.000
      +0.260     -0.003     +0.000
      -0.344     +0.333     -0.000
      +0.226     +0.160     +0.000
      +0.135     -0.003     +0.000
      +0.223     -0.287     -0.000
      -0.376     -0.221     -0.000
      +0.013     -0.005     -0.000
      -0.003     +0.000     -0.000
      +0.088     -0.089     -0.071
      +0.088     -0.089     +0.071
      +0.046     +0.026     -0.000
vibration  35
      +0.000     +0.000     -0.000
      -0.000     +0.000     -0.000
      -0.000     -0.000     -0.000
      +0.000     +0.000     -0.000
      +0.001     -0.000     +0.000
      -0.001     +0.002     +0.000
      -0.002     -0.001     +0.000
      -0.000     +0.001     +0.000
      -0.001     +0.001     -0.000
      +0.001     +0.001     -0.000
      +0.010     -0.022     -0.000
      +0.021     -0.062     -0.000
      -0.002     +0.000     +0.000
      -0.120     +0.372     -0.587
      -0.120     +0.372     +0.587
      +0.011     -0.007     -0.000
vibration  36
      -0.000     -0.000     -0.000
      +0.000     -0.000     -0.000
      +0.000     +0.000     -0.000
      -0.000     -0.000     -0.000
      -0.000     +0.000     +0.000
      +0.000     -0.000     +0.000
      +0.000     +0.000     -0.000
      +0.000     -0.000     +0.000
      +0.000     -0.000     -0.000
      -0.000     -0.000     -0.000
      -0.000     +0.000     -0.003
      -0.000     +0.000     -0.095
      +0.000     -0.000     +0.001
      +0.134     -0.395     +0.567
      -0.134     +0.395     +0.567
      -0.000     +0.000     -0.006
vibration  37
      +0.002     +0.001     +0.000
      +0.001     +0.002     +0.000
      +0.002     -0.006     +0.000
      -0.009     +0.002     -0.000
      +0.019     +0.025     +0.000
      +0.024     -0.075     -0.000
      -0.012     -0.015     -0.000
      -0.024     +0.074     -0.000
      +0.112     -0.023     +0.000
      -0.245     -0.283     -0.000
      -0.281     +0.868     +0.000
      +0.000     -0.002     +0.000
      -0.000     +0.000     +0.000
      -0.005     +0.008     -0.013
      -0.005     +0.008     +0.013
      +0.001     +0.001     +0.000
vibration  38
      -0.000     +0.001     -0.000
      -0.032     -0.041     -0.000
      -0.017     +0.054     -0.000
      +0.030     -0.007     +0.000
      -0.008     -0.008     -0.000
      +0.005     -0.014     -0.000
      +0.399     +0.469     +0.000
      +0.202     -0.629     +0.000
      -0.356     +0.075     -0.000
      +0.087     +0.096     +0.000
      -0.053     +0.158     +0.000
      -0.000     -0.001     +0.000
      -0.000     +0.001     -0.000
      -0.000     +0.002     -0.003
      -0.000     +0.002     +0.003
      +0.005     -0.005     +0.000
vibration  39
      +0.002     -0.001     +0.000
      +0.028     +0.035     +0.000
      -0.002     -0.003     +0.000
      +0.051     -0.009     +0.000
      -0.033     -0.033     -0.000
      +0.009     -0.024     -0.000
      -0.336     -0.393     -0.000
      -0.004     +0.024     -0.000
      -0.588     +0.119     -0.000
      +0.357     +0.400     +0.000
      -0.088     +0.265     +0.000
      +0.000     +0.000     +0.000
      +0.000     -0.001     +0.000
      -0.002     +0.002     -0.002
      -0.002     +0.002     +0.002
      -0.004     +0.004     -0.000
vibration  40
      -0.000     +0.002     -0.000
      -0.031     -0.034     -0.000
      +0.017     -0.046     +0.000
      -0.015     +0.007     -0.000
      -0.035     -0.039     -0.000
      +0.007     -0.015     -0.000
      +0.344     +0.397     +0.000
      -0.172     +0.523     -0.000
      +0.177     -0.043     +0.000
      +0.389     +0.442     +0.000
      -0.060     +0.172     +0.000
      -0.000     -0.001     +0.000
      -0.000     +0.001     -0.000
      +0.000     +0.001     -0.003
      +0.000     +0.001     +0.003
      +0.004     -0.005     +0.000
vibration  41
      +0.001     -0.001     +0.000
      +0.017     +0.017     +0.000
      -0.012     +0.044     +0.000
      -0.060     +0.012     -0.000
      -0.026     -0.032     -0.000
      +0.006     -0.012     -0.000
      -0.175     -0.200     -0.000
      +0.150     -0.472     +0.000
      +0.661     -0.136     +0.000
      +0.295     +0.340     +0.000
      -0.044     +0.128     +0.000
      +0.000     -0.000     +0.000
      +0.000     -0.000     -0.000
      -0.002     +0.002     -0.002
      -0.002     +0.002     +0.002
      -0.001     +0.003     -0.000
vibration  42
      +0.000     +0.000     -0.000
      -0.000     +0.000     +0.000
      -0.000     -0.000     -0.000
      +0.000     +0.000     +0.000
      -0.000     +0.000     -0.000
      +0.000     -0.000     -0.000
      +0.015     +0.003     -0.000
      +0.000     +0.000     +0.000
      -0.000     -0.000     +0.000
      +0.000     +0.000     +0.000
      -0.000     -0.000     -0.000
      +0.002     -0.000     +0.000
      +0.023     -0.058     +0.000
      +0.002     +0.004     -0.007
      +0.002     +0.004     +0.007
      -0.417     +0.907     -0.000
