[Molden Format]
[FR-COORD] # Coordinates in bohr
  C    -0.860013    +0.000003    -0.595339 
  C    +0.442919    -2.256642    -0.340133 
  C    +3.014013    -2.261961    +0.133089 
  C    +4.305688    -0.000003    +0.367498 
  C    +3.014018    +2.261958    +0.133093 
  C    +0.442923    +2.256645    -0.340129 
  H    -0.556336    -4.012434    -0.508293 
  H    +4.002615    -4.020085    +0.321528 
  H    +6.298439    -0.000005    +0.731749 
  H    +4.002623    +4.020079    +0.321535 
  H    -0.556328    +4.012439    -0.508286 
  C    -3.677722    +0.000006    -1.029423 
  O    -4.890850    -0.000005    +1.419913 
  H    -4.210433    +1.658027    -2.108686 
  H    -4.210434    -1.658005    -2.108701 
  H    -6.708181    -0.000003    +1.224519 
[FREQ] # Frequencies in cm^-1
  -71.9337
  150.9630
  291.9251
  349.6765
  375.7707
  466.6468
  556.1227
  655.2325
  713.7906
  806.4133
  854.4941
  900.2947
  988.6893
 1077.5190
 1088.6712
 1106.6371
 1112.7365
 1144.1621
 1153.8486
 1187.5686
 1199.2502
 1251.1541
 1290.5368
 1330.1416
 1335.8479
 1361.9644
 1389.8417
 1520.6478
 1589.6090
 1629.3926
 1673.0745
 1711.4247
 1758.1151
 1780.0747
 3192.5838
 3223.6279
 3346.7126
 3350.2660
 3360.5818
 3370.5387
 3383.8778
 3849.8957
[FR-NORM-COORD] # Displacements in bohr
vibration  1
      +0.000     +0.108     +0.000
      -0.082     +0.068     +0.101
      -0.085     -0.005     +0.097
      +0.000     -0.039     -0.000
      +0.085     -0.005     -0.097
      +0.082     +0.068     -0.101
      -0.150     +0.100     +0.181
      -0.147     -0.032     +0.171
      +0.000     -0.098     -0.000
      +0.147     -0.032     -0.171
      +0.150     +0.100     -0.181
      +0.000     +0.168     +0.000
      -0.000     -0.301     -0.000
      -0.012     +0.362     +0.305
      +0.012     +0.362     -0.305
      -0.000     -0.314     -0.000
vibration  2
      -0.011     +0.000     -0.233
      -0.033     -0.002     -0.169
      -0.077     -0.002     +0.063
      -0.108     -0.000     +0.217
      -0.077     +0.002     +0.063
      -0.033     +0.002     -0.169
      -0.027     +0.001     -0.231
      -0.093     -0.000     +0.158
      -0.150     -0.000     +0.447
      -0.093     +0.000     +0.158
      -0.027     -0.001     -0.231
      -0.030     +0.000     -0.029
      +0.305     -0.000     +0.142
      -0.156     +0.005     +0.042
      -0.156     -0.005     +0.042
      +0.275     -0.000     +0.409
vibration  3
      +0.000     -0.026     -0.000
      +0.012     -0.019     +0.001
      +0.015     +0.007     +0.006
      +0.000     +0.016     +0.000
      -0.015     +0.007     -0.006
      -0.012     -0.019     -0.001
      +0.025     -0.026     +0.006
      +0.029     +0.015     +0.013
      +0.000     +0.029     +0.000
      -0.029     +0.015     -0.013
      -0.025     -0.026     -0.006
      -0.000     +0.019     +0.000
      -0.000     -0.061     -0.000
      +0.050     +0.084     +0.072
      -0.050     +0.084     -0.072
      +0.000     +0.979     +0.000
vibration  4
      +0.017     -0.000     -0.007
      +0.104     +0.012     -0.198
      +0.087     +0.012     -0.050
      +0.057     +0.000     +0.220
      +0.087     -0.012     -0.050
      +0.104     -0.012     -0.198
      +0.159     -0.007     -0.330
      +0.076     +0.003     -0.072
      +0.004     +0.000     +0.512
      +0.076     -0.003     -0.072
      +0.159     +0.007     -0.330
      -0.074     +0.000     +0.168
      -0.292     +0.000     +0.094
      -0.065     -0.006     +0.154
      -0.065     +0.006     +0.154
      -0.268     -0.000     -0.137
vibration  5
      -0.000     -0.139     -0.000
      +0.057     -0.121     +0.017
      +0.075     +0.009     +0.009
      -0.000     +0.061     -0.000
      -0.075     +0.009     -0.009
      -0.057     -0.121     -0.017
      +0.134     -0.168     +0.035
      +0.158     +0.056     +0.017
      -0.000     +0.129     -0.000
      -0.158     +0.056     -0.017
      -0.134     -0.168     -0.035
      +0.000     +0.199     -0.000
      +0.000     +0.049     -0.000
      +0.237     +0.435     +0.249
      -0.237     +0.435     -0.249
      +0.000     -0.322     -0.000
vibration  6
      -0.000     +0.003     +0.000
      -0.037     +0.003     +0.194
      +0.033     -0.000     -0.197
      +0.000     -0.000     +0.000
      -0.033     -0.000     +0.197
      +0.037     +0.003     -0.194
      -0.086     +0.007     +0.451
      +0.080     -0.002     -0.451
      +0.000     -0.003     +0.000
      -0.080     -0.002     +0.451
      +0.086     +0.007     -0.451
      -0.000     -0.008     -0.000
      -0.000     -0.001     +0.000
      +0.002     -0.015     -0.013
      -0.002     -0.015     +0.013
      -0.000     +0.035     +0.000
vibration  7
      -0.060     +0.000     -0.262
      +0.042     +0.064     +0.024
      +0.061     +0.059     +0.117
      +0.199     -0.000     -0.122
      +0.061     -0.059     +0.117
      +0.042     -0.064     +0.024
      +0.099     +0.006     +0.263
      -0.058     +0.016     +0.351
      +0.221     -0.000     -0.242
      -0.058     -0.016     +0.351
      +0.099     -0.006     +0.263
      -0.224     +0.000     -0.066
      -0.066     -0.000     +0.054
      -0.314     +0.004     -0.014
      -0.314     -0.004     -0.014
      -0.081     -0.000     +0.185
vibration  8
      +0.177     +0.000     -0.170
      +0.010     -0.085     -0.065
      -0.052     -0.084     +0.094
      -0.134     +0.000     -0.171
      -0.052     +0.084     +0.094
      +0.010     +0.085     -0.065
      -0.147     -0.014     +0.145
      -0.012     -0.022     +0.454
      -0.129     +0.000     -0.197
      -0.012     +0.022     +0.454
      -0.147     +0.014     +0.145
      +0.191     -0.000     +0.139
      -0.102     -0.000     +0.050
      +0.170     -0.014     +0.130
      +0.170     +0.014     +0.130
      -0.063     +0.000     -0.336
vibration  9
      -0.000     -0.145     -0.000
      -0.235     -0.200     -0.044
      -0.256     +0.242     -0.047
      +0.000     +0.143     +0.000
      +0.256     +0.242     +0.047
      +0.235     -0.200     +0.044
      -0.100     -0.278     -0.021
      -0.119     +0.321     -0.025
      -0.000     -0.284     -0.000
      +0.119     +0.321     +0.025
      +0.100     -0.278     +0.021
      -0.000     -0.044     -0.000
      -0.000     -0.004     +0.000
      +0.005     -0.079     -0.053
      -0.005     -0.079     +0.053
      -0.000     -0.015     +0.000
vibration  10
      -0.026     -0.000     +0.089
      +0.008     +0.007     -0.060
      -0.026     +0.010     +0.125
      +0.022     +0.000     -0.059
      -0.026     -0.010     +0.125
      +0.008     -0.007     -0.060
      +0.103     -0.003     -0.517
      +0.010     +0.003     -0.133
      +0.117     +0.000     -0.585
      +0.010     -0.003     -0.133
      +0.103     +0.003     -0.517
      -0.001     +0.000     -0.002
      +0.008     -0.000     -0.001
      +0.012     +0.004     -0.003
      +0.012     -0.004     -0.003
      +0.006     -0.000     +0.022
vibration  11
      +0.087     -0.000     -0.066
      +0.044     -0.158     +0.070
      +0.083     -0.165     +0.012
      -0.146     +0.000     +0.048
      +0.083     +0.165     +0.012
      +0.044     +0.158     +0.070
      -0.010     -0.118     -0.090
      +0.354     -0.054     -0.332
      -0.081     +0.000     -0.287
      +0.354     +0.054     -0.332
      -0.010     +0.118     -0.090
      -0.170     +0.000     -0.104
      -0.025     -0.000     +0.032
      -0.229     +0.007     -0.066
      -0.229     -0.007     -0.066
      -0.051     -0.000     +0.254
vibration  12
      -0.033     -0.000     +0.202
      +0.028     -0.055     -0.068
      +0.032     -0.052     +0.004
      -0.010     +0.000     -0.118
      +0.032     +0.052     +0.004
      +0.028     +0.055     -0.068
      +0.007     -0.050     -0.028
      -0.003     -0.015     +0.558
      -0.111     -0.000     +0.439
      -0.003     +0.015     +0.558
      +0.007     +0.050     -0.028
      -0.104     +0.000     -0.043
      +0.033     +0.000     -0.035
      -0.053     +0.007     -0.061
      -0.053     -0.007     -0.061
      +0.008     -0.000     +0.235
vibration  13
      -0.000     -0.000     +0.000
      +0.014     -0.001     -0.074
      +0.012     -0.000     -0.071
      +0.000     +0.001     +0.000
      -0.012     -0.000     +0.071
      -0.014     -0.001     +0.074
      -0.094     +0.006     +0.493
      -0.089     +0.002     +0.479
      +0.000     +0.001     -0.000
      +0.089     +0.002     -0.479
      +0.094     +0.006     -0.493
      +0.000     -0.002     -0.000
      -0.000     +0.001     +0.000
      +0.005     +0.004     +0.006
      -0.005     +0.004     -0.006
      -0.000     -0.005     -0.000
vibration  14
      +0.032     -0.000     -0.053
      -0.003     +0.021     +0.104
      -0.009     +0.024     -0.019
      -0.014     -0.000     -0.098
      -0.009     -0.024     -0.019
      -0.003     -0.021     +0.104
      +0.128     +0.010     -0.512
      -0.019     +0.030     +0.054
      -0.138     -0.000     +0.564
      -0.019     -0.030     +0.054
      +0.128     -0.010     -0.512
      +0.069     -0.000     -0.133
      -0.052     -0.000     +0.121
      +0.026     +0.011     -0.083
      +0.026     -0.011     -0.083
      -0.047     -0.000     -0.039
vibration  15
      +0.000     +0.081     -0.000
      -0.016     -0.081     -0.002
      +0.024     -0.044     +0.001
      -0.000     +0.070     -0.000
      -0.024     -0.044     -0.001
      +0.016     -0.081     +0.002
      -0.063     -0.058     -0.013
      +0.135     +0.018     +0.039
      -0.000     +0.222     +0.000
      -0.135     +0.018     -0.039
      +0.063     -0.058     +0.013
      +0.000     +0.178     -0.000
      -0.000     -0.041     +0.000
      -0.417     -0.237     -0.431
      +0.417     -0.237     +0.431
      -0.000     +0.028     +0.000
vibration  16
      -0.035     +0.000     -0.080
      -0.142     -0.119     +0.041
      +0.016     -0.110     +0.003
      +0.283     +0.000     -0.007
      +0.016     +0.110     +0.004
      -0.142     +0.119     +0.041
      -0.202     -0.061     -0.356
      -0.136     -0.222     -0.055
      +0.230     +0.000     +0.392
      -0.136     +0.222     -0.055
      -0.202     +0.061     -0.356
      -0.007     +0.000     +0.148
      +0.040     +0.000     -0.089
      -0.058     -0.017     +0.138
      -0.058     +0.017     +0.138
      +0.060     +0.000     -0.213
vibration  17
      -0.002     +0.000     -0.093
      +0.078     +0.081     +0.088
      +0.013     +0.041     +0.007
      -0.185     +0.000     -0.097
      +0.013     -0.041     +0.007
      +0.078     -0.081     +0.088
      +0.257     +0.023     -0.301
      +0.155     +0.129     -0.019
      -0.273     +0.000     +0.318
      +0.155     -0.129     -0.019
      +0.257     -0.023     -0.301
      -0.128     +0.000     +0.278
      +0.080     +0.000     -0.211
      -0.164     -0.023     +0.238
      -0.164     +0.023     +0.238
      +0.089     +0.000     -0.099
vibration  18
      -0.010     +0.000     +0.006
      +0.037     +0.207     +0.005
      +0.029     -0.203     +0.002
      -0.029     +0.000     -0.001
      +0.029     +0.203     +0.002
      +0.037     -0.207     +0.005
      -0.236     +0.373     -0.055
      -0.265     -0.377     -0.023
      -0.016     +0.000     -0.030
      -0.265     +0.377     -0.023
      -0.236     -0.373     -0.055
      -0.003     +0.000     -0.014
      -0.005     -0.000     +0.007
      +0.018     +0.003     -0.019
      +0.018     -0.003     -0.019
      -0.010     -0.000     +0.051
vibration  19
      -0.000     -0.001     +0.000
      -0.009     +0.002     +0.093
      +0.011     +0.002     -0.096
      -0.000     -0.002     +0.000
      -0.011     +0.002     +0.096
      +0.009     +0.002     -0.093
      +0.114     -0.013     -0.468
      -0.109     -0.003     +0.488
      -0.000     -0.023     -0.000
      +0.109     -0.003     -0.488
      -0.114     -0.013     +0.468
      +0.000     +0.001     -0.000
      -0.000     -0.000     +0.000
      +0.001     -0.000     -0.001
      -0.001     -0.000     +0.001
      -0.000     +0.003     +0.000
vibration  20
      -0.002     +0.000     -0.019
      -0.010     -0.004     +0.050
      +0.018     +0.001     -0.097
      -0.020     -0.000     +0.115
      +0.018     -0.001     -0.097
      -0.010     +0.004     +0.050
      +0.058     -0.015     -0.246
      -0.086     +0.005     +0.487
      +0.106     +0.000     -0.572
      -0.086     -0.005     +0.487
      +0.058     +0.015     -0.246
      +0.001     -0.000     +0.011
      +0.003     +0.000     -0.004
      -0.019     -0.000     +0.020
      -0.019     +0.000     +0.020
      +0.007     +0.000     -0.047
vibration  21
      -0.000     +0.001     -0.000
      +0.150     +0.005     +0.020
      -0.101     +0.031     -0.012
      -0.000     -0.039     +0.000
      +0.101     +0.031     +0.012
      -0.150     +0.005     -0.020
      +0.448     -0.167     +0.121
      -0.269     -0.063     -0.082
      -0.000     -0.442     -0.000
      +0.269     -0.063     +0.082
      -0.448     -0.167     -0.121
      +0.000     +0.072     +0.000
      -0.000     -0.015     +0.000
      -0.091     -0.062     -0.162
      +0.091     -0.062     +0.162
      -0.000     +0.011     +0.000
vibration  22
      +0.000     -0.145     -0.000
      -0.072     +0.073     -0.013
      +0.123     +0.101     +0.021
      -0.000     -0.209     -0.000
      -0.123     +0.101     -0.021
      +0.072     +0.073     +0.013
      +0.037     +0.011     +0.010
      +0.216     +0.160     +0.049
      -0.000     -0.644     -0.000
      -0.216     +0.160     -0.049
      -0.037     +0.011     -0.010
      -0.000     +0.099     +0.000
      -0.000     -0.035     -0.000
      +0.059     -0.110     -0.355
      -0.059     -0.110     +0.355
      -0.000     -0.011     +0.000
vibration  23
      +0.248     -0.000     +0.009
      +0.017     -0.011     +0.015
      -0.077     +0.050     -0.017
      +0.048     +0.000     +0.010
      -0.077     -0.050     -0.017
      +0.017     +0.011     +0.015
      -0.151     +0.105     -0.078
      -0.262     -0.051     -0.042
      +0.047     +0.000     +0.006
      -0.262     +0.051     -0.042
      -0.151     -0.105     -0.078
      -0.068     -0.000     +0.029
      -0.035     +0.000     -0.059
      +0.088     -0.009     -0.070
      +0.088     +0.009     -0.070
      -0.108     -0.000     +0.801
vibration  24
      -0.005     +0.000     +0.006
      +0.057     -0.031     +0.008
      -0.053     -0.027     -0.008
      -0.000     -0.000     -0.001
      -0.053     +0.027     -0.008
      +0.057     +0.031     +0.008
      +0.416     -0.243     +0.095
      -0.415     -0.238     -0.081
      -0.001     -0.000     +0.002
      -0.415     +0.238     -0.081
      +0.416     +0.243     +0.095
      -0.007     -0.000     -0.007
      +0.008     -0.000     +0.006
      -0.057     +0.006     +0.027
      -0.057     -0.006     +0.027
      +0.022     +0.000     -0.151
vibration  25
      -0.000     -0.084     -0.000
      -0.029     +0.033     -0.006
      +0.003     +0.002     +0.001
      -0.000     +0.014     +0.000
      -0.003     +0.002     -0.001
      +0.029     +0.033     +0.006
      +0.043     -0.007     +0.008
      -0.344     -0.199     -0.063
      +0.000     +0.525     +0.000
      +0.344     -0.199     +0.063
      -0.043     -0.007     -0.008
      +0.000     +0.038     +0.000
      -0.000     -0.029     -0.000
      +0.316     -0.049     -0.298
      -0.316     -0.049     +0.298
      -0.000     -0.016     +0.000
vibration  26
      +0.140     -0.000     +0.066
      +0.015     +0.001     -0.005
      -0.028     +0.033     -0.005
      +0.014     -0.000     +0.003
      -0.028     -0.033     -0.005
      +0.015     -0.001     -0.005
      -0.213     +0.140     -0.012
      -0.060     +0.020     -0.009
      +0.012     +0.000     -0.000
      -0.060     -0.020     -0.009
      -0.213     -0.140     -0.012
      -0.071     +0.000     -0.044
      +0.034     -0.000     +0.027
      -0.391     +0.010     +0.122
      -0.391     -0.010     +0.122
      +0.095     +0.000     -0.693
vibration  27
      +0.000     +0.049     +0.000
      +0.057     -0.018     +0.010
      -0.048     -0.031     -0.008
      +0.000     +0.060     +0.000
      +0.048     -0.031     +0.008
      -0.057     -0.018     -0.010
      -0.232     +0.156     -0.050
      +0.220     +0.125     +0.041
      -0.000     -0.287     -0.000
      -0.220     +0.125     -0.041
      +0.232     +0.156     +0.050
      +0.000     +0.004     +0.000
      -0.000     -0.026     -0.000
      +0.476     -0.014     -0.274
      -0.476     -0.014     +0.274
      -0.000     -0.018     -0.000
vibration  28
      +0.000     +0.112     +0.000
      -0.060     +0.014     -0.012
      -0.020     -0.028     -0.003
      -0.000     -0.053     -0.000
      +0.020     -0.028     +0.003
      +0.060     +0.014     +0.012
      +0.448     -0.286     +0.087
      +0.294     +0.152     +0.054
      +0.000     +0.273     +0.000
      -0.294     +0.152     -0.054
      -0.448     -0.286     -0.087
      +0.000     -0.028     -0.000
      -0.000     -0.005     -0.000
      +0.213     +0.017     -0.048
      -0.213     +0.017     +0.048
      -0.000     -0.005     +0.000
vibration  29
      -0.021     +0.000     +0.015
      -0.009     +0.007     -0.004
      +0.005     -0.006     +0.000
      +0.000     +0.000     +0.000
      +0.005     +0.006     +0.000
      -0.009     -0.007     -0.004
      +0.036     -0.019     +0.021
      +0.025     +0.005     +0.005
      +0.001     -0.000     +0.001
      +0.025     -0.005     +0.005
      +0.036     +0.019     +0.021
      +0.157     +0.000     -0.043
      -0.033     +0.000     -0.046
      -0.528     +0.018     +0.340
      -0.528     -0.018     +0.340
      -0.069     -0.000     +0.411
vibration  30
      -0.000     -0.148     -0.000
      +0.069     +0.051     +0.013
      -0.119     +0.005     -0.022
      -0.000     -0.124     -0.000
      +0.119     +0.005     +0.022
      -0.069     +0.051     -0.013
      -0.119     +0.178     -0.024
      +0.310     +0.272     +0.057
      +0.000     +0.645     +0.000
      -0.310     +0.272     -0.057
      +0.119     +0.178     +0.024
      +0.000     +0.033     -0.000
      -0.000     +0.002     -0.000
      -0.173     -0.019     +0.018
      +0.173     -0.019     -0.018
      -0.000     +0.004     +0.000
vibration  31
      +0.111     -0.000     +0.020
      -0.055     +0.086     -0.011
      -0.109     -0.096     -0.020
      +0.094     -0.000     +0.017
      -0.109     +0.096     -0.020
      -0.055     -0.086     -0.011
      +0.392     -0.161     +0.076
      +0.447     +0.217     +0.082
      +0.115     -0.000     +0.021
      +0.447     -0.217     +0.082
      +0.392     +0.161     +0.076
      -0.036     +0.000     -0.014
      +0.002     -0.000     +0.001
      +0.034     +0.069     +0.067
      +0.034     -0.069     +0.067
      +0.004     +0.000     -0.038
vibration  32
      -0.005     +0.000     -0.007
      +0.002     -0.008     +0.001
      +0.011     +0.009     +0.002
      -0.008     +0.000     -0.002
      +0.011     -0.009     +0.002
      +0.002     +0.008     +0.001
      -0.042     +0.014     -0.007
      -0.040     -0.020     -0.008
      -0.011     -0.000     -0.000
      -0.040     +0.020     -0.008
      -0.042     -0.014     -0.007
      -0.046     +0.000     -0.067
      +0.001     +0.000     -0.007
      +0.273     +0.424     +0.488
      +0.273     -0.424     +0.488
      -0.002     +0.000     -0.007
vibration  33
      -0.000     -0.273     -0.000
      -0.090     +0.175     -0.018
      -0.057     -0.186     -0.010
      +0.000     +0.320     +0.000
      +0.057     -0.186     +0.010
      +0.090     +0.175     +0.018
      +0.307     -0.046     +0.060
      +0.251     -0.031     +0.046
      -0.000     -0.525     -0.000
      -0.251     -0.031     -0.046
      -0.307     -0.046     -0.060
      +0.000     +0.034     +0.000
      +0.000     +0.001     +0.000
      -0.173     -0.024     +0.008
      +0.173     -0.024     -0.008
      +0.000     +0.005     -0.000
vibration  34
      +0.212     -0.000     +0.039
      -0.264     +0.082     -0.049
      +0.230     +0.054     +0.042
      -0.119     +0.000     -0.022
      +0.230     -0.054     +0.042
      -0.264     -0.082     -0.049
      +0.357     -0.286     +0.069
      -0.232     -0.228     -0.042
      -0.136     +0.000     -0.027
      -0.232     +0.228     -0.042
      +0.357     +0.286     +0.069
      -0.032     +0.000     -0.002
      +0.000     -0.000     +0.003
      -0.023     -0.012     -0.028
      -0.023     +0.012     -0.028
      +0.003     +0.000     -0.030
vibration  35
      -0.001     +0.000     -0.001
      -0.001     -0.001     -0.000
      +0.000     -0.000     +0.000
      +0.000     -0.000     +0.000
      +0.000     +0.000     +0.000
      -0.001     +0.001     -0.000
      +0.008     +0.012     +0.002
      +0.000     +0.001     +0.000
      -0.000     -0.000     +0.000
      +0.000     -0.001     +0.000
      +0.008     -0.012     +0.002
      +0.032     +0.000     +0.057
      -0.002     -0.000     +0.001
      -0.174     +0.588     -0.349
      -0.174     -0.588     -0.349
      +0.011     -0.000     +0.005
vibration  36
      +0.000     +0.002     +0.000
      -0.001     -0.002     -0.000
      +0.000     +0.000     +0.000
      -0.000     -0.000     -0.000
      -0.000     +0.000     -0.000
      +0.001     -0.002     +0.000
      +0.013     +0.018     +0.003
      +0.001     -0.002     +0.000
      +0.000     -0.000     -0.000
      -0.001     -0.002     -0.000
      -0.013     +0.018     -0.003
      -0.000     +0.095     +0.000
      +0.000     -0.000     -0.000
      +0.191     -0.569     +0.367
      -0.191     -0.569     -0.367
      -0.000     +0.002     -0.000
vibration  37
      -0.002     -0.000     -0.000
      -0.016     -0.032     -0.003
      -0.019     +0.034     -0.004
      +0.037     -0.000     +0.007
      -0.019     -0.034     -0.004
      -0.016     +0.032     -0.003
      +0.203     +0.362     +0.034
      +0.229     -0.408     +0.044
      -0.444     +0.000     -0.081
      +0.229     +0.408     +0.044
      +0.203     -0.362     +0.034
      -0.000     +0.000     -0.001
      +0.000     -0.000     -0.000
      +0.003     -0.006     +0.005
      +0.003     +0.006     +0.005
      -0.000     +0.000     -0.000
vibration  38
      +0.000     -0.002     -0.000
      +0.025     +0.045     +0.004
      +0.014     -0.028     +0.003
      -0.000     +0.001     -0.000
      -0.014     -0.028     -0.003
      -0.025     +0.045     -0.004
      -0.294     -0.520     -0.050
      -0.179     +0.323     -0.034
      +0.000     -0.002     +0.000
      +0.179     +0.323     +0.034
      +0.294     -0.520     +0.050
      -0.000     +0.003     +0.000
      +0.000     -0.000     +0.000
      +0.006     -0.016     +0.010
      -0.006     -0.016     -0.010
      -0.000     +0.000     +0.000
vibration  39
      -0.003     +0.000     -0.000
      -0.022     -0.039     -0.004
      +0.009     -0.009     +0.002
      -0.055     +0.000     -0.010
      +0.009     +0.009     +0.002
      -0.022     +0.039     -0.004
      +0.252     +0.445     +0.043
      -0.075     +0.123     -0.014
      +0.640     -0.000     +0.117
      -0.075     -0.123     -0.014
      +0.252     -0.445     +0.043
      -0.000     +0.000     -0.001
      +0.000     +0.000     -0.000
      +0.005     -0.008     +0.006
      +0.005     +0.008     +0.006
      -0.000     +0.000     -0.000
vibration  40
      +0.000     -0.002     -0.000
      +0.018     +0.028     +0.003
      -0.027     +0.045     -0.005
      +0.000     -0.004     +0.000
      +0.027     +0.045     +0.005
      -0.018     +0.028     -0.003
      -0.184     -0.319     -0.031
      +0.294     -0.519     +0.056
      -0.000     +0.006     -0.000
      -0.294     -0.519     -0.056
      +0.184     -0.319     +0.031
      -0.000     +0.002     +0.000
      -0.000     -0.000     +0.000
      +0.003     -0.008     +0.004
      -0.003     -0.008     -0.004
      +0.000     +0.000     +0.000
vibration  41
      -0.002     +0.000     -0.000
      -0.012     -0.019     -0.002
      +0.021     -0.041     +0.004
      +0.054     -0.000     +0.010
      +0.021     +0.041     +0.004
      -0.012     +0.019     -0.002
      +0.120     +0.207     +0.021
      -0.244     +0.439     -0.047
      -0.596     +0.000     -0.109
      -0.244     -0.439     -0.047
      +0.120     -0.207     +0.021
      -0.000     +0.000     -0.000
      +0.000     +0.000     -0.000
      +0.003     -0.004     +0.003
      +0.003     +0.004     +0.003
      -0.000     +0.000     -0.000
vibration  42
      +0.000     -0.000     +0.000
      +0.000     -0.000     +0.000
      -0.000     -0.000     -0.000
      -0.000     -0.000     +0.000
      -0.000     +0.000     -0.000
      +0.000     +0.000     +0.000
      -0.000     +0.000     +0.000
      +0.000     +0.000     -0.000
      +0.000     -0.000     +0.000
      +0.000     -0.000     -0.000
      -0.000     -0.000     +0.000
      -0.001     +0.000     -0.004
      -0.062     +0.000     -0.003
      +0.004     -0.006     +0.003
      +0.004     +0.006     +0.003
      +0.994     -0.000     +0.087
