[Molden Format]
[FR-COORD] # Coordinates in bohr
  C    +2.057084    +0.085277    -0.002722 
  O    +4.080719    +1.159599    -0.040651 
  H    +1.994951    -1.970245    +0.070121 
  C    -0.385070    +1.353939    -0.048488 
  C    -2.600178    +0.189483    -0.007509 
  H    -0.356145    +3.373713    -0.120783 
  H    -4.328879    +1.233692    -0.045842 
  O    -3.110259    -2.331382    +0.083005 
  H    -1.660323    -3.432724    +0.123464 
[FREQ] # Frequencies in cm^-1
  166.0172
  240.7795
  320.0977
  502.1587
  553.6517
  742.6296
  916.5860
 1048.3732
 1150.4419
 1188.4472
 1196.1947
 1338.4811
 1461.3724
 1552.8564
 1592.0986
 1818.5629
 1900.9241
 3123.1505
 3394.4501
 3418.4219
 3923.3407
[FR-NORM-COORD] # Displacements in bohr
vibration  1
      -0.000     -0.010     -0.277
      -0.000     +0.008     +0.221
      +0.000     -0.032     -0.904
      -0.000     -0.004     -0.113
      -0.000     +0.001     +0.023
      -0.000     -0.000     -0.015
      -0.000     +0.005     +0.146
      +0.000     +0.003     +0.096
      +0.000     +0.004     +0.110
vibration  2
      +0.227     -0.044     +0.001
      +0.070     +0.270     -0.009
      +0.466     -0.051     +0.002
      +0.119     -0.239     +0.008
      +0.026     -0.066     +0.003
      +0.142     -0.234     +0.008
      +0.164     +0.166     -0.005
      -0.365     +0.012     -0.000
      -0.519     -0.201     +0.006
vibration  3
      +0.000     -0.001     -0.021
      +0.000     -0.001     -0.030
      +0.000     -0.009     -0.262
      +0.000     +0.005     +0.136
      +0.000     -0.003     -0.080
      +0.000     +0.006     +0.165
      +0.000     -0.012     -0.339
      -0.000     -0.001     -0.024
      -0.001     +0.031     +0.872
vibration  4
      +0.042     +0.320     -0.011
      +0.305     -0.145     +0.005
      -0.275     +0.318     -0.012
      -0.106     +0.179     -0.006
      -0.014     -0.132     +0.005
      -0.518     +0.190     -0.007
      -0.043     -0.172     +0.006
      -0.176     -0.133     +0.005
      -0.282     -0.282     +0.010
vibration  5
      +0.000     +0.000     +0.005
      +0.000     +0.001     +0.018
      -0.000     +0.010     +0.294
      +0.000     -0.006     -0.160
      -0.000     +0.007     +0.196
      -0.000     -0.006     -0.167
      -0.000     +0.017     +0.467
      -0.000     -0.005     -0.135
      -0.001     +0.027     +0.764
vibration  6
      -0.160     +0.040     -0.001
      -0.183     -0.004     +0.000
      -0.340     +0.045     -0.002
      +0.181     +0.141     -0.005
      +0.351     -0.098     +0.004
      +0.075     +0.138     -0.005
      +0.391     -0.044     +0.002
      -0.076     -0.035     +0.001
      -0.435     -0.510     +0.018
vibration  7
      -0.000     -0.000     -0.010
      +0.000     +0.000     +0.002
      -0.000     +0.008     +0.238
      +0.000     -0.003     -0.069
      +0.000     -0.004     -0.106
      -0.000     +0.031     +0.865
      -0.000     +0.015     +0.409
      -0.000     +0.001     +0.035
      -0.000     +0.003     +0.095
vibration  8
      +0.125     -0.213     +0.008
      -0.013     +0.047     -0.002
      +0.182     -0.194     +0.007
      +0.027     +0.341     -0.012
      -0.064     +0.216     -0.008
      +0.614     +0.353     -0.012
      -0.262     -0.098     +0.003
      -0.094     -0.305     +0.011
      +0.110     -0.057     +0.002
vibration  9
      +0.000     -0.009     -0.244
      -0.000     +0.002     +0.060
      -0.000     +0.033     +0.941
      -0.000     +0.004     +0.110
      -0.000     -0.000     -0.006
      -0.000     -0.005     -0.129
      +0.000     -0.005     -0.150
      +0.000     +0.000     +0.003
      +0.000     +0.000     +0.003
vibration  10
      -0.000     +0.001     +0.008
      -0.000     -0.000     -0.001
      -0.000     -0.001     -0.052
      +0.000     +0.003     +0.094
      +0.000     -0.005     -0.141
      +0.001     -0.019     -0.511
      +0.000     +0.031     +0.836
      -0.000     -0.000     +0.008
      +0.001     +0.004     +0.084
vibration  11
      -0.105     +0.176     -0.006
      -0.008     -0.031     +0.001
      -0.201     +0.182     -0.006
      +0.139     -0.131     +0.004
      -0.026     +0.101     -0.003
      +0.448     -0.136     +0.007
      +0.156     +0.402     -0.018
      -0.051     -0.136     +0.005
      +0.434     +0.470     -0.017
vibration  12
      +0.036     -0.056     +0.002
      -0.025     -0.001     +0.000
      +0.099     -0.065     +0.002
      -0.014     +0.046     -0.002
      +0.069     -0.026     +0.001
      -0.651     +0.055     -0.002
      +0.257     +0.277     -0.010
      -0.048     -0.020     +0.001
      +0.372     +0.512     -0.018
vibration  13
      +0.015     -0.013     +0.000
      +0.002     +0.009     -0.000
      -0.197     +0.003     -0.000
      -0.004     -0.063     +0.002
      -0.021     +0.161     -0.006
      -0.516     -0.059     +0.002
      +0.170     +0.498     -0.018
      +0.059     -0.067     +0.002
      -0.305     -0.530     +0.019
vibration  14
      +0.024     -0.023     +0.001
      -0.001     +0.028     -0.001
      -0.574     -0.003     -0.000
      +0.123     -0.035     +0.001
      -0.011     +0.058     -0.002
      -0.386     -0.030     +0.001
      -0.390     -0.570     +0.020
      -0.020     +0.001     -0.000
      +0.072     +0.127     -0.005
vibration  15
      -0.026     +0.076     -0.003
      -0.050     -0.064     +0.002
      +0.842     +0.060     -0.002
      +0.053     -0.029     +0.001
      +0.028     +0.093     -0.003
      -0.288     -0.025     +0.001
      -0.232     -0.342     +0.012
      -0.009     -0.018     +0.001
      -0.044     -0.072     +0.003
vibration  16
      +0.099     +0.053     -0.002
      -0.120     -0.052     +0.002
      +0.198     +0.037     -0.001
      +0.403     +0.160     -0.006
      -0.391     -0.255     +0.009
      -0.290     +0.224     -0.008
      +0.010     +0.567     -0.020
      +0.051     +0.044     -0.002
      -0.151     -0.199     +0.007
vibration  17
      -0.579     -0.237     +0.008
      +0.345     +0.180     -0.006
      +0.482     -0.253     +0.009
      +0.175     +0.053     -0.002
      -0.072     -0.038     +0.001
      -0.332     +0.054     -0.002
      -0.017     +0.081     -0.003
      +0.004     -0.005     +0.000
      -0.008     -0.028     +0.001
vibration  18
      +0.001     +0.082     -0.003
      +0.000     +0.001     -0.000
      -0.025     -0.996     +0.035
      +0.000     -0.001     +0.000
      +0.000     +0.004     -0.000
      +0.002     +0.011     -0.000
      -0.007     -0.000     +0.000
      +0.001     -0.002     +0.000
      -0.005     -0.004     +0.000
vibration  19
      -0.001     -0.000     +0.000
      +0.000     +0.000     -0.000
      -0.002     +0.007     -0.000
      -0.000     -0.068     +0.002
      -0.044     +0.026     -0.001
      +0.007     +0.795     -0.028
      +0.515     -0.307     +0.011
      +0.002     -0.000     +0.000
      -0.018     +0.009     -0.000
vibration  20
      +0.002     +0.001     -0.000
      -0.001     -0.000     +0.000
      +0.003     -0.010     +0.000
      +0.007     +0.054     -0.002
      -0.065     +0.032     -0.001
      -0.012     -0.599     +0.021
      +0.685     -0.402     +0.015
      +0.002     -0.002     +0.000
      -0.025     +0.009     -0.000
vibration  21
      -0.001     +0.001     -0.000
      +0.000     -0.000     +0.000
      +0.006     +0.003     -0.000
      +0.000     +0.000     -0.000
      +0.004     -0.001     +0.000
      +0.002     -0.000     +0.000
      -0.026     +0.017     -0.001
      +0.048     -0.040     +0.001
      -0.785     +0.615     -0.023
