[Molden Format]
[FR-COORD] # Coordinates in bohr
  C    +2.399717    +0.762320    -0.025207 
  O    +2.785120    -1.494753    +0.035066 
  H    +3.975306    +2.080358    -0.063708 
  C    -0.052125    +2.037807    -0.054874 
  C    -2.272628    +0.894994    -0.019753 
  H    -0.020149    +4.060484    -0.109453 
  H    -3.974240    +2.002969    -0.046218 
  O    -2.568699    -1.652754    +0.049417 
  H    -4.308267    -2.187745    +0.067302 
[FREQ] # Frequencies in cm^-1
  150.5294
  215.5094
  277.8415
  478.6222
  511.0035
  888.3128
  955.6054
  976.3624
 1168.1247
 1170.9404
 1204.4065
 1328.1018
 1421.0575
 1589.2156
 1615.3440
 1851.5453
 1929.3599
 3153.5190
 3326.9700
 3387.1722
 3918.0305
[FR-NORM-COORD] # Displacements in bohr
vibration  1
      -0.000     -0.006     -0.222
      +0.001     +0.005     +0.196
      -0.002     -0.022     -0.828
      +0.000     +0.001     +0.051
      +0.000     +0.004     +0.143
      +0.000     +0.005     +0.171
      +0.001     +0.010     +0.385
      -0.000     -0.004     -0.157
      -0.000     -0.000     -0.008
vibration  2
      -0.121     -0.021     +0.001
      -0.458     -0.080     +0.003
      +0.053     -0.232     +0.006
      -0.007     +0.176     -0.005
      +0.076     +0.028     -0.001
      +0.001     +0.171     -0.005
      -0.062     -0.189     +0.006
      +0.464     -0.023     -0.000
      +0.549     -0.297     +0.008
vibration  3
      -0.000     -0.001     -0.038
      -0.000     +0.000     +0.001
      -0.000     -0.005     -0.188
      +0.000     +0.001     +0.046
      -0.000     -0.001     -0.028
      +0.000     +0.002     +0.087
      -0.000     -0.003     -0.112
      +0.000     +0.002     +0.088
      -0.002     -0.026     -0.965
vibration  4
      +0.197     +0.218     -0.006
      -0.303     +0.145     -0.003
      +0.355     +0.014     -0.001
      +0.202     +0.022     -0.001
      +0.289     -0.213     +0.005
      -0.120     +0.028     -0.001
      +0.372     -0.078     +0.002
      -0.227     -0.183     +0.005
      -0.390     +0.328     -0.008
vibration  5
      +0.000     +0.001     +0.037
      +0.000     +0.000     +0.014
      +0.001     +0.014     +0.514
      -0.000     -0.006     -0.230
      +0.000     +0.005     +0.177
      -0.000     -0.004     -0.157
      +0.001     +0.017     +0.647
      -0.000     -0.001     -0.037
      -0.001     -0.012     -0.453
vibration  6
      +0.000     +0.001     +0.047
      -0.000     -0.001     -0.023
      -0.000     -0.005     -0.184
      +0.000     +0.001     +0.048
      +0.000     +0.003     +0.123
      -0.002     -0.024     -0.881
      -0.001     -0.011     -0.397
      -0.000     -0.001     -0.042
      -0.000     -0.003     -0.097
vibration  7
      +0.059     -0.089     +0.002
      +0.111     -0.145     +0.004
      +0.209     -0.267     +0.007
      -0.105     +0.511     -0.014
      +0.025     +0.037     -0.001
      -0.140     +0.524     -0.014
      -0.197     -0.291     +0.008
      -0.074     -0.211     +0.006
      -0.222     +0.220     -0.005
vibration  8
      -0.427     -0.056     +0.002
      +0.079     +0.024     -0.001
      -0.542     +0.088     -0.001
      +0.074     +0.047     -0.001
      +0.273     -0.087     +0.002
      +0.173     +0.027     -0.001
      +0.308     -0.051     +0.001
      -0.005     +0.012     -0.000
      -0.163     +0.511     -0.013
vibration  9
      -0.000     -0.004     -0.135
      +0.000     +0.001     +0.033
      +0.001     +0.014     +0.538
      -0.000     -0.000     -0.021
      +0.000     +0.003     +0.120
      -0.002     +0.009     +0.323
      -0.001     -0.021     -0.756
      +0.000     +0.000     -0.012
      +0.000     +0.001     +0.003
vibration  10
      -0.065     -0.002     -0.001
      -0.017     +0.065     -0.002
      -0.126     +0.078     +0.001
      +0.133     -0.028     +0.000
      -0.080     +0.233     -0.005
      +0.841     -0.035     +0.001
      -0.042     +0.298     -0.012
      -0.014     -0.227     +0.006
      -0.044     -0.189     +0.005
vibration  11
      +0.000     +0.005     +0.176
      -0.000     -0.001     -0.042
      -0.001     -0.018     -0.685
      -0.000     -0.004     -0.157
      +0.000     +0.003     +0.099
      +0.001     +0.014     +0.533
      -0.001     -0.011     -0.422
      -0.000     -0.000     -0.011
      +0.000     +0.000     +0.008
vibration  12
      +0.045     -0.001     -0.000
      -0.012     +0.005     -0.000
      -0.010     +0.061     -0.002
      -0.063     -0.069     +0.002
      -0.027     +0.051     -0.001
      -0.008     -0.072     +0.002
      -0.140     -0.128     +0.004
      +0.071     -0.041     +0.001
      -0.249     +0.934     -0.025
vibration  13
      -0.014     +0.001     +0.000
      +0.008     -0.018     +0.000
      -0.003     -0.025     +0.001
      -0.027     -0.026     +0.001
      +0.033     +0.087     -0.002
      -0.671     -0.014     +0.002
      +0.378     +0.625     -0.018
      +0.017     -0.064     +0.002
      -0.008     -0.010     +0.000
vibration  14
      -0.074     -0.019     +0.001
      +0.023     +0.083     -0.002
      +0.556     -0.808     +0.021
      +0.027     -0.026     +0.001
      -0.022     +0.008     -0.000
      -0.091     -0.029     +0.001
      -0.073     -0.071     +0.002
      +0.004     -0.001     +0.000
      -0.014     +0.052     -0.001
vibration  15
      +0.029     -0.001     -0.000
      +0.000     +0.013     -0.000
      +0.155     -0.138     +0.003
      -0.149     +0.032     -0.001
      -0.012     -0.116     +0.003
      +0.626     +0.016     -0.002
      +0.432     +0.574     -0.016
      +0.022     +0.016     -0.000
      -0.006     +0.106     -0.003
vibration  16
      -0.127     +0.307     -0.008
      +0.043     -0.209     +0.006
      +0.123     +0.006     -0.000
      +0.348     +0.085     -0.003
      -0.353     -0.220     +0.007
      -0.125     +0.132     -0.003
      +0.036     +0.507     -0.014
      +0.061     +0.010     -0.000
      -0.107     +0.469     -0.012
vibration  17
      +0.085     -0.431     +0.011
      -0.048     +0.271     -0.007
      -0.446     +0.234     -0.005
      +0.206     +0.126     -0.004
      -0.205     -0.169     +0.005
      -0.347     +0.174     -0.004
      +0.072     +0.359     -0.010
      +0.032     +0.021     -0.001
      -0.045     +0.243     -0.006
vibration  18
      -0.065     -0.052     +0.002
      +0.000     +0.000     -0.000
      +0.775     +0.623     -0.018
      +0.001     +0.004     -0.000
      -0.000     +0.002     -0.000
      -0.012     -0.058     +0.002
      +0.003     -0.005     +0.000
      +0.000     -0.001     +0.000
      -0.002     +0.001     -0.000
vibration  19
      +0.001     +0.001     -0.000
      +0.000     -0.000     +0.000
      -0.006     -0.006     +0.000
      -0.004     +0.017     -0.000
      +0.073     -0.041     +0.001
      -0.000     -0.237     +0.006
      -0.818     +0.517     -0.012
      -0.001     -0.000     +0.000
      +0.015     -0.000     -0.000
vibration  20
      -0.006     -0.002     +0.000
      -0.000     +0.000     -0.000
      +0.047     +0.031     -0.001
      -0.006     -0.085     +0.002
      +0.023     -0.008     +0.000
      +0.021     +0.967     -0.026
      -0.197     +0.119     -0.003
      -0.000     +0.001     -0.000
      +0.005     -0.000     -0.000
vibration  21
      +0.001     -0.000     +0.000
      -0.000     +0.000     -0.000
      -0.001     -0.001     +0.000
      -0.001     -0.001     +0.000
      +0.003     -0.002     +0.000
      +0.001     +0.000     -0.000
      -0.014     +0.002     -0.000
      +0.059     +0.022     -0.001
      -0.948     -0.310     +0.010
