[Molden Format]
[FR-COORD] # Coordinates in bohr
  C    +1.655287    -1.087262    -0.000000 
  O    +3.591716    +0.100845    -0.000000 
  H    +1.547492    -3.120589    +0.000003 
  C    -0.890518    +0.191789    +0.000000 
  O    -1.276699    +2.419032    +0.000000 
  O    -2.708790    -1.594429    +0.000000 
  H    -4.404007    -0.904680    -0.000002 
[FREQ] # Frequencies in cm^-1
  161.9701
  282.5829
  512.7601
  568.4836
  711.3941
  725.1678
  925.6791
 1155.1269
 1218.4290
 1448.9610
 1534.8929
 1934.4146
 1988.5746
 3286.2957
 3877.3913
[FR-NORM-COORD] # Displacements in bohr
vibration  1
      +0.000     -0.000     -0.278
      -0.000     +0.000     +0.217
      -0.000     -0.000     -0.858
      +0.000     -0.000     -0.074
      +0.000     -0.000     -0.065
      -0.000     +0.000     +0.145
      -0.000     +0.000     +0.331
vibration  2
      +0.031     -0.104     +0.000
      -0.261     +0.385     -0.000
      +0.463     -0.124     +0.000
      +0.023     -0.258     +0.000
      +0.459     -0.186     -0.000
      -0.260     +0.057     -0.000
      -0.134     +0.374     -0.000
vibration  3
      -0.277     -0.035     +0.000
      -0.322     -0.013     -0.000
      -0.346     -0.026     -0.000
      +0.027     +0.119     +0.000
      +0.205     +0.149     -0.000
      +0.319     -0.154     -0.000
      +0.110     -0.694     -0.000
vibration  4
      -0.000     -0.000     +0.017
      -0.000     +0.000     +0.016
      -0.000     +0.000     +0.385
      +0.000     -0.000     -0.169
      +0.000     -0.000     +0.048
      +0.000     -0.000     -0.031
      -0.000     +0.000     +0.905
vibration  5
      +0.000     -0.000     +0.040
      -0.000     +0.000     -0.024
      +0.000     -0.000     -0.448
      +0.000     -0.000     +0.280
      -0.000     -0.000     -0.107
      +0.000     +0.000     -0.133
      +0.000     +0.000     +0.830
vibration  6
      +0.012     -0.244     -0.000
      -0.197     +0.042     +0.000
      +0.114     -0.248     +0.000
      +0.241     -0.033     -0.000
      -0.221     -0.119     +0.000
      +0.198     +0.257     +0.000
      +0.368     +0.680     -0.000
vibration  7
      -0.257     +0.386     +0.000
      +0.028     -0.077     +0.000
      -0.470     +0.406     -0.000
      +0.099     -0.140     +0.000
      +0.046     -0.224     -0.000
      +0.059     +0.059     +0.000
      +0.236     +0.499     -0.000
vibration  8
      -0.000     -0.000     -0.238
      +0.000     -0.000     +0.056
      +0.000     +0.000     +0.957
      +0.000     +0.000     +0.149
      +0.000     +0.000     -0.028
      -0.000     -0.000     -0.021
      +0.000     +0.000     -0.028
vibration  9
      +0.009     +0.006     -0.000
      +0.029     -0.005     +0.000
      +0.163     -0.010     +0.000
      -0.206     -0.077     +0.000
      +0.019     -0.102     -0.000
      +0.108     +0.217     -0.000
      -0.298     -0.875     +0.000
vibration  10
      -0.012     +0.012     +0.000
      -0.001     -0.032     +0.000
      +0.588     -0.023     -0.000
      -0.224     -0.056     -0.000
      +0.025     +0.050     +0.000
      +0.095     -0.026     +0.000
      +0.352     +0.680     -0.000
vibration  11
      +0.058     -0.068     +0.000
      +0.036     +0.063     -0.000
      -0.945     -0.046     +0.000
      -0.117     -0.025     +0.000
      +0.018     -0.005     +0.000
      +0.042     -0.001     +0.000
      +0.131     +0.242     -0.000
vibration  12
      +0.627     +0.322     -0.000
      -0.419     -0.253     +0.000
      -0.299     +0.414     -0.000
      -0.044     -0.007     +0.000
      +0.010     -0.013     -0.000
      -0.010     +0.004     +0.000
      -0.015     +0.003     -0.000
vibration  13
      +0.020     -0.052     +0.000
      -0.003     +0.002     -0.000
      +0.235     -0.058     -0.000
      -0.162     +0.747     +0.000
      +0.091     -0.474     -0.000
      -0.004     -0.066     +0.000
      +0.116     +0.321     -0.000
vibration  14
      +0.005     +0.087     -0.000
      -0.003     -0.002     -0.000
      -0.035     -0.996     +0.000
      +0.004     +0.001     -0.000
      -0.000     -0.000     -0.000
      -0.001     -0.000     +0.000
      -0.000     -0.004     +0.000
vibration  15
      -0.001     +0.000     -0.000
      -0.000     +0.000     +0.000
      -0.002     -0.002     +0.000
      +0.002     -0.002     +0.000
      -0.000     -0.000     -0.000
      +0.059     -0.020     +0.000
      -0.935     +0.350     -0.000
