[Molden Format]
[FR-COORD] # Coordinates in bohr
  C    -1.802785    -0.189280    +0.828885 
  O    -3.529467    -0.058503    -0.650713 
  H    -2.090226    -0.591339    +2.815818 
  C    +0.951739    +0.213799    +0.118786 
  O    +1.914264    +2.242589    -0.067100 
  O    +2.301115    -1.945217    -0.154756 
  H    +1.337562    -3.491638    -0.251283 
[FREQ] # Frequencies in cm^-1
 -165.6901
  306.5001
  341.2178
  384.9223
  575.8561
  794.9167
  961.3004
 1067.4914
 1263.2761
 1315.5646
 1531.8962
 1908.3486
 2002.6857
 3202.3564
 3895.1484
[FR-NORM-COORD] # Displacements in bohr
vibration  1
      -0.014     +0.217     +0.056
      +0.030     -0.235     -0.039
      -0.081     +0.870     +0.175
      +0.006     +0.031     +0.015
      +0.088     +0.001     +0.093
      -0.095     -0.011     -0.107
      -0.170     +0.040     -0.172
vibration  2
      -0.023     +0.077     +0.150
      +0.174     +0.116     -0.080
      -0.289     +0.559     +0.201
      -0.023     -0.161     +0.115
      -0.259     -0.060     -0.033
      +0.120     -0.019     -0.130
      +0.279     -0.155     +0.489
vibration  3
      +0.060     -0.121     +0.127
      +0.241     -0.042     -0.075
      -0.081     -0.650     -0.005
      -0.031     +0.123     +0.150
      +0.030     +0.068     -0.092
      -0.262     +0.009     -0.067
      -0.401     +0.067     +0.424
vibration  4
      +0.019     +0.004     +0.047
      +0.070     +0.015     -0.012
      -0.018     +0.017     +0.040
      -0.013     -0.010     +0.022
      -0.059     +0.004     -0.042
      -0.009     -0.022     +0.062
      -0.091     +0.090     -0.981
vibration  5
      +0.313     +0.050     -0.179
      +0.111     +0.007     +0.084
      +0.591     +0.248     -0.090
      +0.012     -0.033     -0.257
      -0.238     +0.126     +0.147
      -0.132     -0.158     +0.081
      -0.332     -0.054     +0.325
vibration  6
      -0.111     +0.010     -0.035
      -0.170     -0.013     -0.024
      -0.265     -0.061     -0.067
      +0.393     +0.060     +0.257
      -0.080     +0.315     -0.066
      +0.095     -0.356     -0.073
      -0.631     +0.070     +0.014
vibration  7
      +0.308     +0.140     -0.377
      -0.114     -0.033     +0.072
      +0.395     -0.005     -0.388
      +0.033     -0.093     +0.530
      -0.082     -0.162     -0.094
      -0.094     +0.160     -0.059
      +0.152     +0.021     -0.153
vibration  8
      -0.012     +0.258     +0.038
      +0.012     -0.056     -0.009
      +0.125     -0.882     -0.174
      -0.080     +0.027     -0.011
      -0.024     -0.012     +0.014
      +0.059     -0.078     -0.014
      +0.226     -0.188     -0.003
vibration  9
      +0.023     -0.066     -0.032
      +0.004     +0.015     +0.008
      +0.040     +0.274     +0.034
      -0.120     +0.090     +0.058
      +0.042     +0.082     -0.013
      -0.023     -0.097     -0.010
      +0.742     -0.557     -0.100
vibration  10
      -0.036     +0.041     +0.050
      -0.016     -0.012     -0.011
      -0.192     -0.226     -0.018
      +0.276     -0.159     -0.073
      -0.026     +0.044     +0.008
      -0.174     +0.097     +0.029
      +0.750     -0.426     -0.108
vibration  11
      +0.059     +0.013     -0.054
      +0.023     -0.011     +0.071
      -0.964     -0.032     -0.235
      -0.024     +0.013     -0.027
      +0.004     +0.000     +0.003
      +0.008     -0.007     +0.002
      -0.019     +0.008     -0.004
vibration  12
      -0.568     +0.037     -0.404
      +0.378     -0.029     +0.311
      +0.407     +0.065     -0.281
      -0.001     -0.118     +0.042
      +0.031     +0.069     -0.015
      -0.005     +0.015     -0.006
      -0.033     +0.038     -0.012
vibration  13
      +0.114     +0.033     +0.053
      -0.055     -0.003     -0.045
      -0.018     -0.139     -0.014
      -0.340     -0.666     +0.061
      +0.221     +0.423     -0.043
      +0.025     +0.049     +0.002
      -0.328     +0.233     +0.033
vibration  14
      +0.011     +0.017     -0.082
      +0.002     -0.000     +0.002
      -0.159     -0.195     +0.964
      -0.002     -0.000     +0.000
      +0.000     +0.000     -0.000
      +0.001     -0.000     -0.000
      -0.002     -0.003     -0.003
vibration  15
      -0.001     -0.001     +0.000
      +0.000     +0.000     +0.000
      +0.001     +0.002     -0.003
      +0.003     -0.000     -0.001
      -0.000     -0.001     +0.000
      +0.030     +0.055     +0.003
      -0.511     -0.856     -0.052
