[Molden Format]
[FR-COORD] # Coordinates in bohr
  C    -0.021203    +1.797017    +0.046278 
  C    +2.359671    +1.130281    -0.229612 
  H    -0.586390    +3.726641    -0.251458 
  H    +3.718243    +2.551525    -0.742125 
  C    +3.401899    -1.504552    +0.101204 
  C    -2.099418    +0.033880    +0.782361 
  H    +1.938113    -2.854098    +0.568476 
  H    +4.305748    -2.126058    -1.631769 
  H    +4.820043    -1.533521    +1.583294 
  O    -3.478357    -1.066343    -0.672497 
  H    -2.343876    -0.184642    +2.809054 
[FREQ] # Frequencies in cm^-1
 -175.6130
  142.9694
  228.1160
  323.1896
  567.2952
  639.9627
  807.5284
  951.9184
 1020.7227
 1102.5922
 1134.0132
 1220.2850
 1255.1462
 1386.7674
 1551.9458
 1558.0187
 1584.6563
 1654.0508
 1661.3219
 1863.1372
 1905.6786
 3159.2445
 3194.8748
 3239.9215
 3273.3141
 3316.3484
 3341.4218
[FR-NORM-COORD] # Displacements in bohr
vibration  1
      +0.011     +0.057     +0.071
      -0.020     -0.021     -0.001
      +0.111     +0.115     +0.236
      +0.019     -0.031     +0.071
      -0.076     -0.051     -0.087
      -0.107     +0.178     +0.021
      -0.116     -0.041     -0.189
      -0.024     +0.005     -0.080
      -0.126     -0.127     -0.039
      +0.186     -0.158     -0.003
      -0.523     +0.647     +0.022
vibration  2
      -0.003     +0.004     +0.021
      -0.004     +0.002     +0.021
      -0.004     +0.002     +0.007
      -0.005     -0.005     -0.002
      -0.009     -0.001     +0.006
      -0.008     +0.001     -0.004
      +0.074     +0.097     +0.553
      -0.519     -0.212     -0.187
      +0.404     +0.098     -0.390
      +0.024     -0.003     -0.031
      -0.046     +0.002     -0.009
vibration  3
      -0.008     +0.123     -0.017
      -0.026     +0.073     -0.021
      -0.074     +0.094     -0.045
      +0.062     -0.026     -0.051
      -0.281     -0.027     +0.029
      +0.179     -0.084     +0.004
      -0.432     +0.122     -0.020
      -0.293     -0.136     +0.063
      -0.337     -0.174     +0.079
      +0.142     -0.032     +0.003
      +0.441     -0.400     +0.001
vibration  4
      -0.038     -0.026     +0.181
      -0.107     -0.080     -0.245
      -0.060     -0.039     +0.138
      -0.200     -0.123     -0.612
      +0.028     +0.012     +0.065
      -0.024     -0.032     +0.133
      +0.096     -0.027     +0.162
      +0.205     -0.155     +0.221
      -0.076     +0.321     +0.177
      +0.119     +0.108     -0.111
      -0.179     -0.197     +0.090
vibration  5
      +0.143     -0.057     +0.100
      +0.164     +0.101     -0.147
      +0.090     +0.006     +0.569
      +0.159     +0.167     +0.031
      -0.063     +0.069     +0.020
      -0.033     -0.066     -0.062
      -0.284     +0.350     +0.146
      -0.060     -0.322     +0.169
      -0.175     +0.061     +0.130
      -0.128     -0.062     +0.004
      -0.210     +0.153     -0.055
vibration  6
      +0.016     -0.186     -0.037
      +0.087     +0.078     +0.054
      -0.209     -0.326     -0.535
      -0.057     +0.105     -0.244
      -0.053     +0.063     -0.014
      -0.030     -0.040     +0.118
      -0.237     +0.213     -0.154
      -0.172     +0.085     -0.086
      -0.056     -0.279     -0.026
      +0.052     +0.064     -0.032
      -0.325     +0.197     +0.102
vibration  7
      -0.070     -0.180     -0.110
      -0.072     -0.044     -0.021
      -0.053     -0.067     +0.588
      -0.040     +0.147     +0.612
      -0.043     +0.052     -0.012
      +0.102     +0.013     -0.004
      +0.018     +0.023     +0.097
      +0.026     -0.053     +0.064
      -0.068     +0.244     +0.019
      +0.068     +0.083     +0.022
      +0.016     +0.286     +0.018
vibration  8
      +0.111     -0.073     +0.110
      -0.028     -0.197     +0.060
      +0.279     -0.087     -0.227
      -0.016     -0.353     -0.312
      -0.151     +0.222     -0.008
      +0.085     +0.039     -0.120
      +0.110     -0.065     -0.049
      -0.064     +0.514     -0.073
      -0.030     +0.366     -0.116
      -0.033     -0.024     +0.024
      +0.054     +0.118     -0.113
vibration  9
      +0.073     +0.051     -0.138
      +0.066     -0.098     -0.017
      +0.440     +0.174     -0.010
      +0.291     -0.138     +0.454
      -0.053     +0.106     -0.028
      -0.186     -0.041     +0.190
      +0.013     +0.060     +0.028
      +0.022     +0.073     +0.021
      -0.044     +0.245     -0.028
      +0.028     -0.010     -0.044
      +0.038     -0.483     +0.164
vibration  10
      -0.029     -0.095     +0.048
      -0.013     -0.037     +0.008
      +0.252     -0.038     -0.089
      -0.292     +0.227     +0.014
      +0.062     +0.042     -0.025
      -0.060     +0.155     -0.049
      -0.251     +0.377     -0.013
      -0.063     -0.287     +0.035
      -0.081     -0.204     +0.100
      +0.029     -0.027     +0.014
      +0.455     -0.421     -0.051
vibration  11
      -0.012     -0.017     -0.090
      +0.008     -0.002     +0.023
      +0.146     +0.139     +0.613
      -0.091     -0.096     -0.499
      +0.016     +0.023     +0.078
      -0.019     +0.002     +0.015
      -0.043     +0.003     -0.164
      -0.178     +0.281     -0.124
      +0.136     -0.343     -0.055
      +0.004     +0.000     -0.006
      +0.050     -0.062     +0.015
vibration  12
      -0.010     -0.008     -0.065
      +0.029     +0.031     +0.167
      +0.049     +0.049     +0.195
      -0.089     -0.110     -0.537
      -0.022     -0.022     -0.129
      -0.007     -0.006     +0.010
      +0.046     +0.049     +0.286
      +0.279     -0.381     +0.174
      -0.235     +0.436     +0.105
      +0.003     +0.002     -0.002
      +0.000     +0.002     +0.012
vibration  13
      -0.014     +0.118     -0.022
      -0.076     -0.134     +0.037
      +0.208     +0.170     -0.081
      -0.172     -0.043     +0.049
      +0.107     +0.084     -0.033
      +0.081     -0.125     +0.016
      -0.303     +0.511     -0.048
      -0.121     -0.314     +0.000
      -0.097     -0.292     +0.145
      -0.022     +0.020     -0.004
      -0.331     +0.332     +0.016
vibration  14
      +0.035     -0.019     -0.005
      -0.034     +0.059     -0.007
      +0.691     +0.143     -0.143
      -0.436     +0.445     -0.001
      -0.039     -0.050     +0.016
      +0.023     -0.045     +0.012
      +0.097     -0.198     +0.023
      +0.034     +0.079     +0.007
      +0.028     +0.061     -0.044
      -0.008     +0.003     -0.003
      -0.108     +0.075     +0.007
vibration  15
      +0.051     +0.035     -0.040
      +0.026     -0.058     +0.008
      -0.320     -0.055     +0.080
      -0.309     +0.269     +0.023
      -0.010     -0.020     +0.004
      +0.024     +0.035     -0.031
      -0.063     +0.048     +0.007
      +0.007     +0.116     -0.032
      +0.005     +0.118     -0.013
      +0.012     +0.007     +0.051
      -0.602     -0.527     -0.173
vibration  16
      -0.089     -0.059     +0.013
      -0.031     +0.085     -0.011
      +0.451     +0.079     -0.083
      +0.465     -0.385     +0.003
      +0.021     +0.006     -0.006
      +0.037     +0.012     -0.051
      +0.024     +0.003     +0.011
      -0.016     -0.072     +0.000
      -0.022     -0.087     +0.037
      +0.019     +0.018     +0.053
      -0.481     -0.341     -0.167
vibration  17
      -0.004     -0.013     +0.005
      -0.012     +0.017     -0.001
      +0.083     +0.010     -0.016
      +0.076     -0.063     -0.005
      +0.060     -0.113     +0.012
      -0.000     -0.004     +0.005
      -0.364     +0.358     -0.019
      -0.226     +0.440     -0.313
      -0.139     +0.547     +0.188
      -0.002     -0.001     -0.007
      +0.070     +0.058     +0.021
vibration  18
      -0.023     +0.001     +0.002
      +0.009     -0.001     +0.017
      +0.033     +0.016     -0.009
      +0.016     -0.024     -0.030
      -0.017     -0.010     +0.050
      +0.005     -0.002     -0.002
      -0.270     +0.068     -0.579
      +0.108     -0.293     +0.188
      +0.423     +0.355     -0.376
      -0.000     +0.001     +0.000
      -0.008     +0.012     -0.003
vibration  19
      +0.031     -0.003     -0.007
      -0.008     +0.010     +0.011
      -0.039     -0.021     +0.010
      -0.027     +0.019     -0.016
      +0.040     +0.035     +0.017
      -0.004     +0.005     +0.003
      +0.230     -0.346     -0.376
      -0.583     -0.363     -0.166
      -0.250     +0.211     +0.267
      -0.001     -0.002     -0.000
      -0.018     -0.030     -0.003
vibration  20
      +0.424     -0.069     -0.071
      -0.438     +0.172     +0.043
      -0.182     -0.281     +0.096
      +0.103     -0.423     +0.087
      +0.044     -0.024     -0.004
      +0.059     +0.097     +0.108
      -0.144     +0.171     -0.009
      +0.178     -0.147     +0.112
      +0.142     -0.171     -0.103
      -0.070     -0.065     -0.073
      -0.055     -0.210     +0.065
vibration  21
      -0.214     -0.015     +0.004
      +0.157     -0.051     -0.014
      +0.117     +0.096     +0.002
      +0.049     +0.098     +0.047
      -0.015     +0.010     -0.006
      +0.458     +0.348     +0.373
      +0.067     -0.059     +0.029
      -0.044     +0.028     -0.027
      -0.058     +0.034     +0.040
      -0.278     -0.218     -0.287
      -0.320     -0.208     +0.219
vibration  22
      +0.002     -0.001     +0.000
      -0.000     -0.001     +0.000
      -0.011     +0.020     +0.001
      +0.001     +0.005     +0.001
      -0.000     +0.001     -0.001
      -0.010     -0.009     +0.082
      -0.013     -0.010     +0.005
      +0.003     -0.000     -0.005
      +0.010     +0.001     +0.011
      -0.001     -0.001     -0.000
      +0.127     +0.115     -0.981
vibration  23
      -0.000     -0.001     +0.000
      -0.001     -0.001     +0.000
      -0.001     +0.008     -0.001
      +0.019     +0.015     -0.006
      +0.035     -0.036     +0.007
      -0.000     -0.000     +0.002
      +0.306     +0.261     -0.093
      -0.254     +0.172     +0.515
      -0.466     -0.002     -0.500
      -0.000     +0.000     +0.000
      +0.003     +0.003     -0.019
vibration  24
      +0.000     +0.000     +0.000
      +0.000     +0.000     +0.001
      +0.000     +0.000     +0.001
      -0.002     -0.002     -0.000
      +0.012     +0.019     +0.088
      -0.000     -0.000     +0.001
      -0.017     -0.013     +0.030
      +0.340     -0.220     -0.623
      -0.468     +0.009     -0.468
      -0.000     -0.000     -0.000
      +0.001     +0.001     -0.005
vibration  25
      -0.001     +0.003     -0.000
      -0.009     -0.011     +0.004
      +0.008     -0.032     +0.005
      +0.120     +0.119     -0.044
      +0.077     +0.041     -0.020
      +0.000     +0.000     -0.001
      -0.650     -0.585     +0.206
      -0.103     +0.095     +0.239
      -0.176     +0.009     -0.212
      +0.000     -0.000     -0.000
      -0.001     -0.002     +0.009
vibration  26
      +0.018     -0.060     +0.009
      +0.035     +0.037     -0.013
      -0.204     +0.719     -0.114
      -0.424     -0.444     +0.160
      +0.011     +0.005     -0.003
      +0.000     +0.000     -0.001
      -0.086     -0.080     +0.028
      -0.018     +0.017     +0.039
      -0.029     +0.003     -0.034
      +0.000     -0.000     +0.000
      -0.002     -0.006     +0.015
vibration  27
      -0.022     +0.054     -0.007
      +0.050     +0.042     -0.017
      +0.178     -0.616     +0.097
      -0.502     -0.521     +0.189
      +0.010     +0.003     -0.002
      -0.001     -0.001     +0.001
      -0.063     -0.063     +0.021
      -0.020     +0.018     +0.039
      -0.031     +0.004     -0.034
      +0.000     +0.000     +0.000
      +0.002     +0.006     -0.016
