[Molden Format]
[FR-COORD] # Coordinates in bohr
  C    -0.257931    +0.943037    +0.026105 
  O    -1.768788    +2.631365    +0.036428 
  O    +2.249674    +1.469336    +0.132710 
  C    -1.050050    -1.749110    -0.101472 
  C    +0.455977    -3.725411    -0.122669 
  H    -3.059783    -1.960897    -0.179103 
  H    -0.287462    -5.606876    -0.218419 
  H    +2.480223    -3.605754    -0.047960 
  H    +3.379678    +0.048036    +0.119096 
[FREQ] # Frequencies in cm^-1
 -136.0510
  318.9852
  339.7511
  535.4345
  577.8079
  637.3530
  876.9324
  912.1107
 1134.9635
 1147.7404
 1188.7730
 1267.8394
 1381.0185
 1453.8007
 1622.0493
 1852.9420
 1986.9500
 3327.6337
 3388.4162
 3410.8170
 3960.6732
[FR-NORM-COORD] # Displacements in bohr
vibration  1
      -0.001     -0.001     +0.019
      +0.003     +0.004     -0.095
      -0.001     -0.001     +0.017
      -0.006     -0.006     +0.161
      +0.004     +0.005     -0.125
      -0.016     -0.018     +0.472
      +0.001     +0.001     -0.019
      +0.019     +0.020     -0.535
      -0.023     -0.025     +0.661
vibration  2
      -0.001     -0.001     +0.017
      +0.003     +0.003     -0.082
      -0.003     -0.004     +0.099
      -0.003     -0.004     +0.095
      +0.002     +0.002     -0.057
      -0.008     -0.009     +0.232
      +0.002     +0.002     -0.047
      +0.006     +0.006     -0.167
      +0.033     +0.035     -0.940
vibration  3
      -0.119     -0.015     -0.005
      +0.048     +0.133     +0.007
      -0.070     -0.275     -0.013
      -0.092     -0.009     -0.004
      +0.203     +0.212     +0.015
      -0.066     -0.232     -0.011
      +0.526     +0.087     +0.022
      +0.180     +0.503     +0.025
      -0.189     -0.354     -0.020
vibration  4
      -0.007     -0.007     +0.189
      +0.003     +0.003     -0.076
      +0.003     +0.003     -0.076
      -0.004     -0.004     +0.109
      +0.002     +0.002     -0.048
      +0.013     +0.014     -0.386
      +0.025     +0.027     -0.725
      -0.018     -0.019     +0.510
      -0.001     -0.001     +0.037
vibration  5
      +0.141     -0.100     +0.001
      -0.096     -0.336     -0.016
      +0.164     -0.034     +0.004
      -0.158     +0.181     +0.001
      -0.087     +0.313     +0.009
      -0.168     +0.360     +0.007
      +0.174     +0.220     +0.014
      -0.109     +0.593     +0.018
      +0.236     +0.022     +0.009
vibration  6
      +0.002     +0.140     +0.005
      -0.206     -0.020     -0.008
      +0.045     -0.175     -0.005
      +0.232     +0.169     +0.014
      +0.018     +0.002     +0.001
      +0.234     +0.164     +0.014
      -0.414     +0.170     -0.008
      +0.050     -0.477     -0.016
      -0.312     -0.460     -0.028
vibration  7
      +0.001     +0.218     +0.008
      -0.222     +0.095     -0.004
      +0.338     +0.024     +0.013
      -0.176     -0.202     -0.014
      +0.002     -0.130     -0.005
      -0.185     -0.203     -0.014
      +0.517     -0.337     +0.005
      -0.023     +0.342     +0.012
      -0.086     -0.328     -0.015
vibration  8
      +0.014     +0.015     -0.398
      -0.003     -0.004     +0.099
      -0.002     -0.002     +0.067
      -0.007     -0.008     +0.213
      +0.000     +0.001     -0.014
      +0.003     +0.003     -0.079
      +0.026     +0.028     -0.742
      -0.016     -0.017     +0.463
      -0.003     -0.003     +0.092
vibration  9
      -0.000     -0.000     +0.005
      +0.000     +0.000     -0.003
      +0.000     +0.000     -0.001
      +0.001     +0.001     -0.021
      +0.004     +0.004     -0.120
      -0.018     -0.019     +0.523
      -0.012     -0.013     +0.342
      -0.027     -0.029     +0.768
      -0.001     -0.002     +0.042
vibration  10
      -0.107     -0.076     -0.007
      -0.008     +0.016     +0.000
      +0.107     +0.027     +0.005
      -0.063     -0.030     -0.003
      +0.062     +0.098     +0.006
      -0.012     -0.521     -0.020
      -0.538     +0.330     -0.006
      +0.083     -0.482     -0.015
      +0.188     +0.082     +0.010
vibration  11
      +0.001     +0.001     -0.017
      -0.000     -0.000     +0.005
      -0.000     -0.000     +0.001
      -0.004     -0.004     +0.120
      +0.004     +0.004     -0.110
      +0.025     +0.027     -0.731
      -0.023     -0.024     +0.659
      -0.001     -0.002     +0.042
      +0.000     +0.000     -0.004
vibration  12
      +0.044     +0.022     +0.002
      +0.061     -0.057     +0.000
      -0.017     +0.082     +0.002
      -0.056     -0.030     -0.003
      +0.025     +0.035     +0.002
      -0.053     -0.071     -0.004
      -0.054     +0.065     +0.001
      +0.042     -0.168     -0.005
      -0.792     -0.550     -0.048
vibration  13
      +0.327     +0.261     +0.021
      -0.031     -0.040     -0.003
      -0.158     -0.089     -0.009
      -0.178     -0.108     -0.010
      +0.095     +0.036     +0.005
      -0.171     -0.269     -0.016
      -0.262     +0.163     -0.003
      +0.132     -0.479     -0.013
      +0.388     +0.374     +0.027
vibration  14
      -0.036     -0.042     -0.003
      -0.012     +0.021     +0.000
      +0.017     +0.003     +0.001
      -0.080     -0.019     -0.003
      +0.112     -0.019     +0.003
      -0.191     +0.891     +0.026
      -0.031     +0.026     -0.000
      +0.141     -0.350     -0.008
      +0.038     +0.017     +0.002
vibration  15
      +0.018     +0.008     +0.001
      -0.009     +0.015     +0.000
      -0.005     -0.002     -0.000
      +0.049     -0.134     -0.003
      +0.014     +0.013     +0.001
      +0.016     +0.241     +0.009
      -0.649     +0.297     -0.011
      -0.055     +0.635     +0.022
      -0.054     -0.034     -0.003
vibration  16
      -0.065     +0.062     +0.000
      +0.051     -0.074     -0.001
      +0.007     -0.002     +0.000
      -0.167     +0.298     +0.005
      +0.197     -0.282     -0.004
      -0.152     -0.278     -0.016
      -0.525     -0.042     -0.020
      +0.178     +0.581     +0.028
      +0.001     +0.006     +0.000
vibration  17
      +0.460     -0.518     -0.003
      -0.270     +0.315     +0.002
      -0.034     +0.044     +0.000
      -0.079     +0.148     +0.003
      +0.057     -0.075     -0.001
      -0.012     -0.328     -0.013
      -0.129     -0.010     -0.005
      +0.069     +0.157     +0.008
      -0.323     -0.221     -0.019
vibration  18
      -0.001     -0.000     -0.000
      +0.000     +0.000     +0.000
      +0.001     -0.001     +0.000
      +0.001     -0.008     -0.000
      -0.057     +0.044     -0.000
      +0.049     +0.006     +0.002
      -0.214     -0.498     -0.026
      +0.832     +0.066     +0.031
      -0.002     +0.006     +0.000
vibration  19
      +0.000     -0.001     -0.000
      -0.000     +0.001     +0.000
      -0.000     -0.000     -0.000
      +0.067     +0.005     +0.003
      -0.048     -0.039     -0.003
      -0.769     -0.086     -0.030
      +0.184     +0.475     +0.024
      +0.362     +0.022     +0.013
      +0.000     +0.001     +0.000
vibration  20
      -0.002     +0.002     +0.000
      +0.001     -0.001     +0.000
      +0.001     -0.000     +0.000
      -0.057     -0.003     -0.002
      -0.049     -0.057     -0.004
      +0.628     +0.067     +0.024
      +0.237     +0.618     +0.031
      +0.390     +0.018     +0.014
      +0.001     +0.005     +0.000
vibration  21
      +0.000     +0.003     +0.000
      +0.001     -0.001     +0.000
      -0.041     +0.047     +0.000
      -0.000     -0.000     -0.000
      +0.000     -0.000     +0.000
      +0.002     +0.002     +0.000
      -0.002     +0.001     -0.000
      +0.008     +0.007     +0.001
      +0.631     -0.773     -0.007
