[Molden Format]
[FR-COORD] # Coordinates in bohr
  C    -0.301996    +0.905453    +0.015737 
  O    -1.699793    +2.701630    +0.024599 
  O    +2.250427    +1.170703    +0.092058 
  C    -1.105894    -1.751642    -0.076147 
  C    +0.505289    -3.645397    -0.082045 
  H    -3.109811    -2.015506    -0.137783 
  H    -0.126734    -5.569216    -0.149960 
  H    +2.501641    -3.322281    -0.019104 
  H    +2.743089    +2.930804    +0.151626 
[FREQ] # Frequencies in cm^-1
  157.1049
  323.0835
  534.5134
  579.6334
  626.2845
  635.0258
  882.1039
  926.8396
 1138.1178
 1155.5393
 1200.7371
 1286.1262
 1447.7790
 1492.3839
 1599.3589
 1839.1118
 1962.9869
 3342.4386
 3396.4632
 3433.3890
 3886.7783
[FR-NORM-COORD] # Displacements in bohr
vibration  1
      +0.001     +0.001     -0.053
      -0.005     -0.004     +0.170
      +0.003     +0.003     -0.110
      +0.007     +0.006     -0.245
      -0.005     -0.005     +0.197
      +0.018     +0.017     -0.647
      -0.004     -0.004     +0.139
      -0.017     -0.017     +0.637
      -0.003     -0.003     +0.113
vibration  2
      -0.127     -0.013     -0.004
      +0.057     +0.126     +0.005
      -0.089     -0.269     -0.009
      -0.088     -0.020     -0.003
      +0.198     +0.214     +0.011
      -0.057     -0.234     -0.008
      +0.523     +0.109     +0.017
      +0.136     +0.555     +0.018
      +0.113     -0.329     -0.006
vibration  3
      -0.004     -0.004     +0.143
      +0.001     +0.001     -0.040
      +0.000     +0.000     -0.008
      -0.001     -0.001     +0.036
      +0.001     +0.001     -0.020
      +0.010     +0.010     -0.360
      +0.013     +0.013     -0.493
      -0.011     -0.010     +0.389
      +0.018     +0.018     -0.671
vibration  4
      +0.141     -0.039     +0.003
      -0.185     -0.325     -0.014
      +0.199     -0.091     +0.003
      -0.095     +0.215     +0.003
      -0.082     +0.295     +0.006
      -0.114     +0.414     +0.008
      +0.072     +0.252     +0.009
      -0.114     +0.476     +0.009
      +0.360     -0.139     +0.007
vibration  5
      +0.002     +0.002     -0.077
      -0.001     -0.001     +0.050
      -0.003     -0.002     +0.095
      +0.002     +0.002     -0.087
      -0.000     -0.000     +0.014
      -0.005     -0.005     +0.175
      -0.010     -0.011     +0.401
      +0.006     +0.007     -0.241
      +0.022     +0.023     -0.851
vibration  6
      +0.033     -0.160     -0.003
      +0.192     -0.062     +0.003
      +0.011     +0.165     +0.004
      -0.228     -0.109     -0.009
      -0.037     +0.072     +0.001
      -0.232     -0.057     -0.008
      +0.385     -0.061     +0.008
      -0.105     +0.514     +0.011
      -0.501     +0.315     -0.002
vibration  7
      +0.016     -0.156     -0.004
      +0.152     -0.108     +0.001
      -0.241     -0.033     -0.007
      +0.160     +0.200     +0.010
      +0.007     +0.129     +0.004
      +0.170     +0.197     +0.010
      -0.480     +0.290     -0.005
      +0.079     -0.347     -0.007
      -0.536     +0.047     -0.013
vibration  8
      +0.011     +0.010     -0.394
      -0.003     -0.003     +0.100
      -0.002     -0.002     +0.077
      -0.006     -0.005     +0.209
      +0.000     +0.000     -0.002
      +0.004     +0.004     -0.132
      +0.021     +0.020     -0.762
      -0.011     -0.011     +0.419
      +0.003     +0.003     -0.103
vibration  9
      -0.115     -0.062     -0.005
      -0.020     +0.026     +0.000
      +0.151     -0.002     +0.004
      -0.050     -0.022     -0.002
      +0.049     +0.098     +0.004
      +0.016     -0.512     -0.013
      -0.520     +0.279     -0.007
      +0.125     -0.447     -0.008
      -0.312     +0.143     -0.005
vibration  10
      -0.000     -0.000     +0.007
      +0.000     +0.000     -0.004
      -0.000     +0.000     -0.001
      +0.002     +0.002     -0.069
      +0.001     +0.001     -0.047
      -0.021     -0.020     +0.752
      +0.001     +0.001     -0.052
      -0.018     -0.017     +0.650
      -0.000     -0.000     +0.007
vibration  11
      -0.000     -0.000     +0.014
      +0.000     +0.000     -0.003
      +0.000     +0.000     -0.001
      +0.003     +0.003     -0.100
      -0.004     -0.004     +0.165
      -0.010     -0.010     +0.379
      +0.021     +0.020     -0.762
      +0.013     +0.013     -0.487
      +0.000     +0.000     -0.009
vibration  12
      +0.094     +0.058     +0.004
      +0.045     -0.056     -0.000
      -0.101     +0.064     -0.001
      -0.094     -0.077     -0.005
      +0.036     +0.068     +0.003
      -0.052     -0.410     -0.012
      -0.287     +0.169     -0.003
      +0.081     -0.267     -0.005
      +0.740     -0.199     +0.015
vibration  13
      +0.053     +0.023     +0.002
      -0.023     +0.014     -0.000
      -0.006     -0.019     -0.001
      -0.125     -0.042     -0.005
      +0.130     -0.004     +0.003
      -0.249     +0.762     +0.013
      -0.029     +0.033     +0.000
      +0.216     -0.490     -0.007
      -0.169     +0.035     -0.004
vibration  14
      -0.237     -0.155     -0.011
      +0.052     +0.001     +0.001
      +0.040     +0.082     +0.003
      +0.041     +0.005     +0.001
      +0.025     -0.010     +0.000
      -0.035     +0.561     +0.014
      -0.143     +0.049     -0.003
      +0.005     +0.101     +0.003
      +0.733     -0.141     +0.016
vibration  15
      +0.051     +0.020     +0.002
      -0.021     +0.022     -0.000
      -0.009     -0.015     -0.001
      +0.040     -0.125     -0.002
      +0.024     +0.002     +0.001
      -0.003     +0.226     +0.006
      -0.682     +0.251     -0.012
      -0.086     +0.613     +0.014
      -0.121     +0.022     -0.003
vibration  16
      -0.071     +0.099     +0.001
      +0.060     -0.096     -0.001
      +0.006     -0.002     +0.000
      -0.193     +0.307     +0.003
      +0.222     -0.286     -0.001
      -0.160     -0.328     -0.013
      -0.499     -0.103     -0.016
      +0.143     +0.541     +0.018
      -0.045     +0.015     -0.001
vibration  17
      +0.364     -0.566     -0.005
      -0.240     +0.320     +0.002
      -0.041     +0.047     +0.000
      -0.093     +0.196     +0.003
      +0.076     -0.091     -0.000
      -0.006     -0.342     -0.009
      -0.125     -0.040     -0.005
      +0.068     +0.155     +0.006
      +0.383     -0.112     +0.007
vibration  18
      -0.001     -0.000     -0.000
      +0.000     +0.000     +0.000
      +0.000     -0.000     -0.000
      -0.007     -0.008     -0.000
      -0.031     +0.063     +0.001
      +0.146     +0.021     +0.005
      -0.254     -0.761     -0.027
      +0.565     +0.098     +0.018
      +0.001     -0.001     -0.000
vibration  19
      +0.001     -0.003     -0.000
      -0.001     +0.001     +0.000
      -0.000     -0.000     -0.000
      +0.084     +0.007     +0.002
      -0.029     -0.000     -0.001
      -0.946     -0.131     -0.029
      +0.010     +0.026     +0.001
      +0.276     +0.046     +0.009
      +0.000     -0.001     -0.000
vibration  20
      -0.001     +0.002     +0.000
      +0.000     -0.000     +0.000
      +0.000     -0.000     +0.000
      -0.022     -0.004     -0.001
      -0.077     -0.055     -0.004
      +0.245     +0.030     +0.007
      +0.176     +0.554     +0.019
      +0.760     +0.113     +0.024
      +0.001     -0.002     -0.000
vibration  21
      +0.000     -0.003     -0.000
      +0.000     +0.000     +0.000
      -0.020     -0.059     -0.002
      +0.000     +0.001     +0.000
      +0.000     +0.000     +0.000
      +0.001     -0.000     +0.000
      +0.000     +0.000     +0.000
      +0.001     +0.000     +0.000
      +0.297     +0.952     +0.033
