[Molden Format]
[FR-COORD] # Coordinates in bohr
  C    -0.125457    +0.915968    -0.142308 
  O    +0.299395    +2.227477    -1.932579 
  O    +0.104866    +1.859482    +2.241805 
  C    -0.971858    -1.783456    -0.234876 
  C    +0.610033    -3.699234    -0.258932 
  H    -2.979979    -2.071421    -0.326681 
  H    -0.050818    -5.612875    -0.350894 
  H    +2.621780    -3.438081    -0.210433 
  H    -0.204910    +0.634584    +3.554474 
[FREQ] # Frequencies in cm^-1
 -152.8282
  305.0454
  340.3615
  482.3541
  600.4691
  787.3413
  813.2469
  883.1392
 1124.5116
 1167.9000
 1206.8194
 1273.1811
 1336.9995
 1454.2705
 1613.4966
 1846.2126
 1997.2572
 3321.8277
 3342.4944
 3403.7342
 3915.8664
[FR-NORM-COORD] # Displacements in bohr
vibration  1
      -0.006     +0.010     -0.032
      -0.099     +0.088     +0.003
      +0.107     -0.097     -0.004
      -0.003     +0.011     -0.164
      -0.008     +0.001     +0.198
      +0.019     +0.023     -0.660
      +0.003     +0.006     +0.029
      -0.016     -0.014     +0.658
      +0.067     -0.131     -0.044
vibration  2
      -0.132     -0.029     -0.010
      +0.104     -0.116     -0.016
      +0.087     -0.121     +0.000
      -0.221     +0.021     +0.008
      +0.085     +0.276     +0.018
      -0.190     -0.157     +0.045
      +0.467     +0.145     +0.059
      +0.036     +0.678     -0.015
      -0.162     -0.086     -0.027
vibration  3
      -0.016     -0.020     +0.119
      -0.031     -0.155     +0.017
      +0.051     +0.159     +0.039
      -0.014     -0.016     -0.045
      +0.009     +0.003     -0.096
      +0.010     -0.016     -0.551
      +0.048     +0.013     -0.587
      -0.003     +0.013     +0.346
      -0.129     +0.326     +0.155
vibration  4
      -0.001     -0.003     +0.012
      +0.020     -0.037     -0.006
      -0.064     +0.019     +0.012
      -0.016     +0.014     -0.018
      -0.005     +0.025     +0.002
      -0.013     +0.027     -0.076
      +0.019     +0.020     -0.050
      -0.008     +0.043     +0.061
      +0.958     -0.244     +0.009
vibration  5
      -0.167     -0.047     -0.036
      +0.108     +0.187     +0.204
      +0.080     +0.166     -0.146
      -0.165     -0.266     -0.070
      +0.040     -0.142     +0.006
      -0.142     -0.456     +0.051
      +0.297     -0.241     +0.177
      +0.010     +0.117     -0.081
      +0.326     +0.390     +0.116
vibration  6
      +0.036     -0.048     +0.045
      -0.042     -0.085     +0.026
      +0.014     +0.065     +0.081
      +0.014     +0.031     -0.272
      -0.007     +0.021     +0.017
      -0.012     +0.056     +0.226
      -0.024     -0.009     +0.790
      -0.001     +0.045     -0.400
      -0.015     +0.163     +0.171
vibration  7
      +0.382     -0.296     +0.010
      -0.113     +0.034     +0.173
      -0.083     -0.011     -0.215
      -0.066     +0.044     +0.044
      -0.060     +0.117     +0.002
      -0.115     +0.444     -0.012
      +0.280     +0.017     -0.128
      -0.104     +0.482     +0.067
      -0.006     +0.293     +0.072
vibration  8
      -0.244     -0.089     +0.037
      +0.026     -0.075     +0.173
      +0.023     -0.067     -0.208
      +0.174     +0.179     -0.004
      +0.019     +0.095     +0.005
      +0.203     -0.011     +0.023
      -0.579     +0.299     +0.038
      +0.086     -0.482     -0.022
      +0.101     +0.229     +0.071
vibration  9
      -0.002     -0.009     -0.012
      -0.001     +0.002     -0.003
      +0.002     +0.001     +0.008
      +0.003     +0.003     -0.060
      +0.001     +0.004     -0.046
      -0.030     -0.018     +0.705
      +0.004     +0.007     -0.106
      -0.013     -0.031     +0.694
      +0.002     +0.024     +0.029
vibration  10
      -0.001     -0.010     -0.009
      -0.000     +0.000     -0.003
      +0.001     +0.003     +0.011
      +0.003     +0.002     -0.092
      -0.002     -0.002     +0.162
      -0.012     -0.031     +0.352
      -0.010     +0.047     -0.791
      +0.011     +0.008     -0.456
      +0.000     +0.039     +0.045
vibration  11
      +0.076     -0.103     -0.082
      -0.006     +0.038     -0.025
      -0.006     +0.030     +0.071
      -0.086     -0.053     +0.021
      +0.062     +0.118     -0.004
      -0.006     -0.530     -0.081
      -0.544     +0.322     +0.004
      +0.124     -0.472     +0.011
      +0.013     +0.056     +0.106
vibration  12
      +0.108     +0.167     +0.177
      -0.027     -0.053     +0.052
      -0.005     +0.010     -0.121
      -0.076     -0.043     -0.051
      +0.032     +0.020     +0.010
      -0.035     -0.396     +0.108
      -0.144     +0.072     +0.033
      +0.061     -0.219     -0.032
      -0.129     -0.497     -0.620
vibration  13
      -0.055     -0.128     -0.118
      -0.002     -0.014     +0.067
      +0.034     +0.117     +0.058
      +0.033     +0.017     +0.007
      -0.005     +0.002     +0.002
      +0.004     +0.233     -0.001
      +0.001     +0.007     -0.033
      -0.013     +0.062     +0.007
      -0.169     -0.646     -0.661
vibration  14
      -0.013     +0.018     +0.015
      +0.001     -0.000     -0.004
      -0.001     -0.008     -0.008
      -0.106     -0.035     -0.006
      +0.128     -0.010     +0.005
      -0.245     +0.818     +0.022
      -0.061     +0.041     +0.000
      +0.192     -0.443     -0.021
      +0.002     +0.031     +0.026
vibration  15
      +0.008     -0.023     -0.026
      -0.004     -0.005     +0.010
      -0.001     +0.004     +0.007
      -0.045     +0.124     +0.006
      -0.020     -0.003     +0.001
      +0.004     -0.247     -0.012
      +0.673     -0.261     -0.004
      +0.079     -0.626     -0.029
      -0.003     -0.001     +0.004
vibration  16
      -0.029     +0.015     +0.050
      +0.013     +0.020     -0.027
      +0.006     +0.002     -0.006
      +0.181     -0.322     -0.010
      -0.216     +0.291     +0.006
      +0.131     +0.342     +0.017
      +0.495     +0.093     +0.022
      -0.158     -0.558     -0.036
      -0.007     -0.021     -0.029
vibration  17
      +0.142     +0.456     -0.576
      -0.089     -0.278     +0.357
      -0.010     -0.040     +0.039
      +0.010     -0.097     +0.027
      -0.022     +0.035     -0.002
      -0.004     +0.047     -0.043
      -0.012     +0.036     -0.060
      -0.024     -0.018     +0.027
      +0.072     +0.299     +0.327
vibration  18
      -0.000     -0.000     +0.000
      +0.000     +0.000     -0.000
      +0.000     +0.000     +0.000
      -0.016     -0.009     -0.001
      -0.046     +0.048     +0.001
      +0.254     +0.038     +0.012
      -0.218     -0.602     -0.029
      +0.713     +0.098     +0.018
      -0.001     -0.000     -0.000
vibration  19
      +0.000     +0.001     +0.000
      -0.000     -0.000     +0.000
      -0.000     -0.000     -0.000
      -0.083     -0.006     -0.004
      +0.029     -0.006     +0.000
      +0.937     +0.140     +0.044
      +0.014     +0.033     +0.002
      -0.301     -0.040     -0.008
      -0.001     +0.002     -0.002
vibration  20
      -0.000     +0.001     +0.000
      -0.000     +0.000     +0.000
      -0.000     -0.000     +0.000
      -0.016     -0.002     -0.001
      -0.070     -0.068     -0.004
      +0.169     +0.022     +0.008
      +0.243     +0.723     +0.035
      +0.611     +0.069     +0.014
      -0.001     +0.001     -0.000
vibration  21
      +0.001     +0.003     -0.000
      -0.000     -0.000     +0.001
      +0.010     +0.040     -0.047
      -0.000     -0.000     +0.000
      +0.000     +0.000     +0.000
      +0.002     +0.000     +0.000
      +0.000     +0.001     -0.000
      -0.000     -0.000     +0.000
      -0.167     -0.657     +0.732
