[Molden Format]
[FR-COORD] # Coordinates in bohr
  C    -0.135881    +0.899103    -0.147722 
  O    +0.301915    +2.205306    -1.937527 
  O    +0.155182    +1.799281    +2.292839 
  C    -0.957465    -1.796746    -0.251987 
  C    +0.629952    -3.704754    -0.259509 
  H    -2.964022    -2.101915    -0.338372 
  H    -0.025512    -5.620566    -0.343990 
  H    +2.638351    -3.435431    -0.183085 
  H    -1.385722    +2.402197    +3.075604 
[FREQ] # Frequencies in cm^-1
 -536.9718
 -177.3426
  302.4613
  331.5495
  599.9744
  775.8688
  789.6544
  871.3665
 1116.0003
 1117.5085
 1163.0897
 1260.6520
 1285.0587
 1460.9091
 1616.3436
 1852.2620
 1981.7666
 3323.0334
 3336.5221
 3405.9858
 3856.7263
[FR-NORM-COORD] # Displacements in bohr
vibration  1
      -0.006     +0.003     +0.005
      +0.019     -0.014     -0.000
      +0.019     +0.064     -0.028
      -0.020     -0.000     -0.000
      -0.007     +0.007     +0.006
      -0.016     -0.017     -0.043
      +0.003     +0.004     -0.016
      -0.009     +0.016     +0.025
      -0.171     -0.915     +0.352
vibration  2
      -0.003     +0.007     -0.026
      -0.096     +0.080     +0.003
      +0.096     -0.087     -0.006
      +0.001     +0.008     -0.158
      -0.008     -0.001     +0.186
      +0.021     +0.023     -0.672
      +0.001     +0.004     -0.006
      -0.024     -0.015     +0.655
      +0.135     -0.057     +0.048
vibration  3
      +0.136     +0.026     +0.030
      -0.114     +0.094     +0.016
      -0.058     +0.149     +0.010
      +0.217     -0.020     -0.004
      -0.084     -0.273     -0.035
      +0.186     +0.155     -0.096
      -0.457     -0.143     -0.135
      -0.035     -0.667     +0.028
      -0.177     -0.017     -0.094
vibration  4
      +0.028     +0.025     -0.131
      +0.014     +0.178     -0.022
      -0.040     -0.171     -0.043
      +0.038     +0.020     +0.042
      -0.019     -0.026     +0.108
      +0.011     +0.037     +0.559
      -0.102     -0.020     +0.613
      +0.005     -0.079     -0.333
      -0.072     -0.278     -0.025
vibration  5
      -0.196     -0.031     -0.032
      +0.114     +0.206     +0.219
      +0.085     +0.185     -0.162
      -0.154     -0.287     -0.073
      +0.049     -0.171     +0.008
      -0.128     -0.495     +0.083
      +0.282     -0.264     +0.217
      +0.023     +0.066     -0.112
      +0.253     +0.309     +0.058
vibration  6
      +0.275     -0.171     +0.028
      -0.089     +0.002     +0.089
      +0.001     +0.066     -0.017
      -0.098     -0.020     -0.109
      -0.037     +0.061     +0.008
      -0.137     +0.196     +0.101
      +0.279     -0.055     +0.328
      -0.072     +0.406     -0.160
      -0.332     -0.087     -0.527
vibration  7
      +0.079     -0.047     -0.038
      +0.005     +0.092     +0.035
      -0.026     -0.063     -0.142
      -0.038     -0.017     +0.269
      -0.010     +0.016     -0.016
      -0.030     +0.065     -0.207
      +0.115     +0.009     -0.773
      -0.035     +0.108     +0.367
      -0.083     -0.077     -0.249
vibration  8
      +0.114     +0.164     -0.101
      +0.022     +0.109     -0.257
      +0.022     +0.036     +0.311
      -0.178     -0.212     +0.064
      +0.004     -0.128     -0.010
      -0.180     -0.174     -0.071
      +0.510     -0.294     -0.214
      -0.056     +0.337     +0.110
      -0.263     -0.067     -0.114
vibration  9
      -0.025     -0.017     -0.020
      +0.005     +0.004     +0.005
      +0.022     +0.005     +0.023
      -0.010     -0.003     +0.058
      +0.014     +0.023     +0.050
      +0.039     -0.109     -0.650
      -0.142     +0.074     +0.055
      +0.056     -0.108     -0.667
      -0.131     -0.040     -0.220
vibration  10
      -0.064     -0.061     -0.068
      +0.008     +0.009     +0.012
      +0.060     +0.024     +0.063
      -0.015     +0.001     -0.015
      +0.037     +0.064     -0.018
      +0.025     -0.321     +0.290
      -0.355     +0.198     -0.090
      +0.069     -0.331     +0.316
      -0.328     -0.125     -0.523
vibration  11
      -0.002     +0.004     -0.000
      +0.002     +0.004     -0.001
      +0.001     -0.005     -0.004
      -0.004     -0.004     +0.100
      +0.006     +0.005     -0.161
      +0.015     +0.007     -0.391
      -0.026     -0.026     +0.791
      -0.014     -0.017     +0.427
      -0.016     -0.010     -0.032
vibration  12
      -0.176     -0.103     -0.124
      +0.022     -0.004     +0.032
      +0.052     +0.030     +0.067
      +0.128     +0.084     +0.021
      -0.063     -0.079     -0.004
      +0.046     +0.617     -0.014
      +0.400     -0.226     -0.037
      -0.123     +0.433     +0.018
      -0.175     -0.071     -0.255
vibration  13
      +0.055     -0.241     -0.186
      -0.002     +0.051     -0.012
      -0.051     +0.067     +0.089
      -0.014     -0.023     +0.030
      +0.019     +0.076     -0.002
      -0.021     +0.095     -0.071
      -0.255     +0.176     -0.045
      +0.035     -0.114     +0.025
      +0.369     +0.210     +0.756
vibration  14
      +0.020     -0.023     -0.014
      -0.001     +0.004     -0.001
      -0.005     +0.005     +0.007
      +0.103     +0.030     +0.006
      -0.126     +0.013     -0.004
      +0.248     -0.821     -0.023
      +0.037     -0.027     -0.004
      -0.191     +0.438     +0.010
      +0.030     +0.021     +0.059
vibration  15
      -0.012     +0.026     +0.026
      +0.005     +0.004     -0.010
      +0.004     -0.004     -0.006
      +0.043     -0.120     -0.005
      +0.023     -0.001     +0.001
      -0.011     +0.255     +0.010
      -0.673     +0.255     -0.009
      -0.078     +0.624     +0.014
      -0.020     -0.015     -0.042
vibration  16
      +0.036     -0.017     -0.059
      -0.015     -0.023     +0.033
      -0.009     +0.001     +0.005
      -0.187     +0.328     +0.008
      +0.218     -0.291     -0.003
      -0.129     -0.358     -0.020
      -0.484     -0.100     -0.024
      +0.160     +0.546     +0.027
      +0.027     +0.024     +0.052
vibration  17
      -0.177     -0.495     +0.623
      +0.108     +0.317     -0.418
      +0.011     +0.002     -0.032
      -0.012     +0.122     -0.021
      +0.032     -0.048     +0.002
      +0.001     -0.024     +0.037
      +0.000     -0.045     +0.061
      +0.034     +0.035     -0.028
      -0.054     -0.027     -0.117
vibration  18
      +0.000     -0.000     -0.000
      +0.000     -0.000     +0.000
      +0.000     -0.000     +0.000
      +0.041     +0.011     +0.002
      +0.033     -0.046     -0.000
      -0.528     -0.084     -0.023
      +0.209     +0.585     +0.026
      -0.562     -0.081     -0.022
      +0.001     -0.000     -0.000
vibration  19
      -0.000     -0.001     -0.000
      +0.000     +0.000     -0.000
      +0.000     +0.000     +0.000
      +0.074     +0.003     +0.003
      -0.038     +0.025     -0.000
      -0.814     -0.129     -0.036
      -0.095     -0.264     -0.012
      +0.479     +0.067     +0.018
      +0.000     +0.000     -0.000
vibration  20
      +0.000     -0.001     -0.000
      -0.000     -0.000     +0.000
      +0.000     +0.000     +0.000
      +0.013     +0.002     +0.001
      +0.073     +0.065     +0.005
      -0.142     -0.020     -0.006
      -0.229     -0.691     -0.030
      -0.657     -0.078     -0.025
      -0.000     +0.000     -0.000
vibration  21
      -0.002     -0.000     -0.001
      +0.000     +0.000     -0.001
      -0.051     +0.021     +0.030
      +0.000     -0.000     -0.000
      -0.000     -0.000     -0.000
      +0.001     -0.001     +0.000
      +0.000     -0.001     +0.000
      +0.000     +0.000     -0.000
      +0.825     -0.335     -0.452
