[Molden Format]
[FR-COORD] # Coordinates in bohr
  C    +0.018246    +0.824729    -0.028027 
  O    +2.190632    +1.454171    -0.129792 
  O    -1.917812    +2.581013    -0.003553 
  C    -0.890140    -1.815771    +0.002653 
  C    +0.732730    -3.700508    +0.056422 
  H    -2.892529    -2.086904    -0.055195 
  H    +0.135888    -5.635971    +0.066290 
  H    +2.727644    -3.337906    +0.085568 
  H    -2.643832    +2.881015    +1.649902 
[FREQ] # Frequencies in cm^-1
 -469.7627
  156.5796
  303.7803
  537.2599
  563.2939
  701.2785
  865.4892
  892.6310
 1150.3606
 1187.9257
 1205.8078
 1210.8914
 1298.9975
 1460.5532
 1592.7993
 1837.0087
 1971.4310
 3333.7054
 3395.1808
 3422.8049
 3855.8267
[FR-NORM-COORD] # Displacements in bohr
vibration  1
      +0.005     -0.005     -0.007
      +0.004     +0.008     +0.028
      -0.052     -0.051     -0.013
      +0.004     +0.001     -0.020
      +0.001     -0.002     -0.007
      +0.003     +0.026     -0.000
      -0.004     +0.000     +0.016
      +0.002     -0.009     -0.012
      +0.657     +0.731     +0.158
vibration  2
      -0.006     -0.001     +0.075
      -0.002     -0.015     +0.071
      +0.002     +0.008     -0.147
      -0.002     -0.001     +0.238
      +0.014     +0.001     -0.185
      -0.013     -0.010     +0.637
      +0.022     -0.001     -0.131
      +0.019     +0.008     -0.617
      -0.101     +0.127     -0.214
vibration  3
      -0.132     -0.042     -0.007
      -0.065     -0.265     +0.010
      +0.057     +0.143     +0.013
      -0.105     -0.048     -0.028
      +0.189     +0.199     +0.005
      -0.075     -0.248     -0.051
      +0.551     +0.090     +0.002
      +0.117     +0.584     +0.034
      +0.089     +0.217     +0.013
vibration  4
      +0.094     -0.012     -0.107
      +0.133     -0.083     +0.048
      -0.077     -0.236     +0.021
      -0.091     +0.167     -0.032
      -0.067     +0.232     +0.011
      -0.107     +0.277     +0.264
      +0.058     +0.201     +0.385
      -0.090     +0.385     -0.313
      -0.001     -0.427     +0.091
vibration  5
      +0.036     -0.003     +0.182
      +0.035     -0.034     -0.091
      -0.024     -0.084     -0.038
      -0.021     +0.056     +0.080
      -0.018     +0.070     -0.028
      -0.010     +0.100     -0.424
      +0.025     +0.055     -0.668
      -0.033     +0.113     +0.481
      -0.119     +0.125     -0.121
vibration  6
      +0.036     -0.142     +0.018
      -0.081     +0.262     -0.000
      +0.266     -0.108     -0.009
      -0.250     -0.145     +0.002
      -0.054     +0.045     -0.000
      -0.261     -0.059     -0.003
      +0.482     -0.114     +0.001
      -0.147     +0.595     -0.015
      +0.180     +0.015     -0.080
vibration  7
      +0.017     +0.013     -0.230
      +0.041     +0.015     +0.060
      -0.050     +0.049     +0.000
      -0.040     -0.040     +0.169
      -0.002     -0.023     -0.006
      -0.035     -0.025     -0.147
      +0.123     -0.065     -0.602
      -0.025     +0.087     +0.300
      +0.388     -0.404     +0.295
vibration  8
      -0.142     -0.103     -0.107
      -0.225     -0.025     +0.039
      +0.203     -0.114     +0.006
      +0.157     +0.188     +0.062
      +0.018     +0.117     -0.004
      +0.183     +0.052     -0.044
      -0.560     +0.293     -0.234
      +0.105     -0.432     +0.125
      +0.232     -0.114     +0.008
vibration  9
      +0.003     -0.018     +0.017
      -0.010     -0.001     -0.003
      -0.005     +0.011     -0.009
      +0.007     +0.007     +0.068
      -0.001     -0.003     +0.028
      +0.024     +0.063     -0.766
      +0.016     -0.008     +0.157
      +0.006     +0.015     -0.601
      +0.084     -0.070     +0.051
vibration  10
      +0.048     -0.138     +0.119
      -0.026     +0.016     -0.019
      -0.047     +0.078     -0.069
      +0.005     +0.013     -0.005
      +0.009     +0.033     -0.092
      +0.000     +0.085     +0.018
      -0.089     +0.068     +0.455
      +0.014     -0.042     +0.342
      +0.491     -0.506     +0.312
vibration  11
      +0.032     -0.052     +0.060
      +0.024     +0.023     -0.011
      -0.024     +0.029     -0.027
      -0.058     -0.041     -0.086
      +0.033     +0.076     +0.131
      -0.027     -0.336     +0.231
      -0.316     +0.177     -0.546
      +0.094     -0.270     -0.444
      +0.177     -0.182     +0.114
vibration  12
      +0.001     -0.060     +0.032
      -0.057     -0.019     -0.003
      -0.010     +0.029     -0.017
      +0.102     +0.071     -0.065
      -0.049     -0.077     +0.084
      +0.031     +0.575     +0.240
      +0.399     -0.211     -0.362
      -0.112     +0.364     -0.233
      +0.110     -0.121     +0.073
vibration  13
      -0.105     +0.325     +0.111
      -0.023     -0.044     -0.015
      +0.077     -0.093     -0.065
      -0.001     -0.002     -0.037
      -0.025     -0.063     +0.008
      +0.025     -0.341     +0.047
      +0.177     -0.130     +0.045
      -0.045     +0.078     -0.052
      +0.566     -0.531     +0.249
vibration  14
      -0.013     +0.057     +0.005
      -0.009     -0.008     -0.000
      +0.014     -0.017     -0.004
      -0.121     -0.032     -0.006
      +0.127     -0.014     +0.005
      -0.248     +0.788     +0.010
      +0.013     +0.004     -0.007
      +0.218     -0.480     +0.007
      +0.026     -0.049     +0.006
vibration  15
      +0.015     -0.040     -0.002
      -0.001     +0.004     +0.000
      -0.004     +0.003     +0.002
      -0.042     +0.122     -0.001
      -0.030     +0.004     +0.000
      +0.015     -0.312     -0.003
      +0.680     -0.230     +0.011
      +0.087     -0.599     +0.001
      -0.018     +0.017     -0.007
vibration  16
      -0.049     -0.072     +0.005
      +0.045     +0.022     -0.003
      +0.000     -0.006     -0.000
      -0.192     +0.329     -0.007
      +0.223     -0.284     +0.007
      -0.146     -0.360     -0.004
      -0.483     -0.120     -0.008
      +0.128     +0.547     -0.002
      -0.001     -0.004     -0.002
vibration  17
      +0.720     +0.205     -0.050
      -0.458     -0.139     +0.024
      -0.033     +0.002     +0.013
      -0.096     +0.034     +0.005
      +0.056     -0.052     +0.000
      -0.052     -0.318     -0.003
      -0.178     +0.002     -0.013
      +0.043     +0.161     +0.008
      -0.114     +0.104     -0.053
vibration  18
      -0.001     -0.000     +0.000
      +0.001     -0.000     -0.000
      +0.000     +0.000     -0.000
      -0.003     -0.008     -0.000
      -0.047     +0.051     -0.001
      +0.101     +0.014     +0.003
      -0.206     -0.651     +0.003
      +0.708     +0.130     +0.011
      -0.000     +0.000     +0.001
vibration  19
      +0.001     -0.002     -0.000
      -0.000     -0.000     +0.000
      -0.001     +0.000     +0.000
      +0.079     +0.007     +0.002
      -0.038     -0.019     -0.000
      -0.894     -0.122     -0.025
      +0.071     +0.229     -0.001
      +0.342     +0.059     +0.005
      +0.000     +0.003     -0.000
vibration  20
      -0.001     +0.002     +0.000
      +0.000     -0.000     -0.000
      +0.000     -0.000     +0.000
      -0.038     -0.003     -0.001
      -0.062     -0.065     -0.000
      +0.414     +0.052     +0.012
      +0.195     +0.654     -0.003
      +0.585     +0.093     +0.009
      +0.000     -0.001     -0.001
vibration  21
      +0.000     -0.001     +0.002
      +0.001     -0.000     +0.000
      -0.027     +0.013     +0.055
      +0.000     -0.000     -0.000
      -0.000     +0.000     -0.000
      +0.000     +0.000     +0.000
      -0.000     -0.001     -0.000
      +0.000     +0.000     -0.000
      +0.416     -0.183     -0.889
