[Molden Format]
[FR-COORD] # Coordinates in bohr
  C    -3.848137    +0.835864    -0.229741 
  C    -4.922819    -1.364843    +0.244225 
  H    -4.987695    +2.395948    -0.856818 
  H    -6.909548    -1.650789    -0.036571 
  H    -3.871165    -2.944366    +0.959703 
  C    -1.141233    +1.375179    +0.092094 
  C    +0.722668    -0.257459    -0.245041 
  H    -0.685180    +3.286424    +0.627328 
  C    +3.359520    +0.493214    +0.182273 
  H    +0.397440    -2.158230    -0.865016 
  O    +5.158730    -0.898727    -0.070005 
  H    +3.600196    +2.451803    +0.760766 
[FREQ] # Frequencies in cm^-1
  129.0006
  149.5329
  187.6929
  293.9456
  382.0524
  557.2342
  639.3979
  744.8277
 1000.3619
 1035.3022
 1124.4112
 1136.7786
 1159.1642
 1165.4871
 1180.9806
 1226.9396
 1410.0796
 1455.3050
 1491.6288
 1563.6917
 1613.3749
 1827.8587
 1850.4941
 1909.2465
 3147.5472
 3301.9235
 3323.1536
 3336.5736
 3377.9090
 3405.2882
[FR-NORM-COORD] # Displacements in bohr
vibration  1
      +0.017     -0.034     -0.142
      -0.035     +0.047     +0.107
      +0.092     -0.112     -0.476
      -0.012     +0.008     -0.023
      -0.095     +0.163     +0.452
      -0.004     -0.032     +0.044
      +0.010     +0.008     -0.059
      -0.041     -0.084     +0.268
      -0.006     -0.035     +0.132
      +0.026     +0.086     -0.306
      +0.019     +0.039     -0.087
      -0.045     -0.135     +0.488
vibration  2
      +0.008     +0.011     -0.031
      -0.181     +0.094     -0.083
      +0.134     +0.087     -0.071
      -0.195     +0.262     -0.154
      -0.340     -0.005     -0.066
      +0.027     -0.116     +0.016
      +0.017     -0.185     +0.284
      +0.079     -0.050     -0.261
      +0.017     -0.003     +0.016
      +0.040     -0.278     +0.561
      +0.107     +0.145     -0.147
      -0.076     +0.039     -0.085
vibration  3
      +0.010     -0.019     -0.097
      +0.178     -0.092     -0.050
      -0.071     -0.157     -0.289
      +0.229     -0.304     -0.193
      +0.270     +0.053     +0.135
      -0.038     +0.167     +0.027
      -0.040     +0.117     +0.276
      -0.107     +0.241     -0.188
      +0.009     +0.002     +0.070
      -0.086     +0.064     +0.462
      -0.117     -0.124     -0.169
      +0.196     -0.024     +0.072
vibration  4
      +0.014     -0.066     -0.040
      -0.101     -0.006     -0.028
      +0.124     -0.111     -0.358
      -0.062     +0.019     -0.337
      -0.254     +0.032     +0.281
      -0.011     -0.015     +0.195
      +0.036     +0.078     +0.027
      -0.091     -0.032     +0.327
      +0.072     +0.077     -0.160
      +0.042     +0.105     -0.062
      -0.004     -0.063     +0.048
      +0.176     +0.172     -0.532
vibration  5
      -0.082     -0.100     +0.029
      -0.207     -0.050     +0.023
      -0.118     -0.037     +0.242
      -0.271     +0.176     +0.221
      -0.296     -0.213     -0.207
      -0.039     +0.029     -0.131
      +0.125     +0.181     -0.006
      -0.210     +0.100     -0.224
      +0.176     +0.065     +0.102
      +0.240     +0.124     +0.091
      +0.041     -0.102     -0.040
      +0.342     -0.024     +0.321
vibration  6
      -0.255     +0.090     -0.020
      -0.011     -0.035     -0.006
      -0.329     -0.002     -0.113
      +0.050     -0.396     -0.065
      +0.236     +0.172     +0.088
      -0.150     +0.134     +0.037
      -0.147     +0.029     +0.015
      -0.154     +0.129     +0.067
      +0.127     -0.223     -0.058
      -0.423     +0.084     -0.032
      +0.365     +0.016     +0.034
      +0.026     -0.191     -0.102
vibration  7
      +0.112     -0.081     +0.134
      -0.048     -0.050     -0.016
      +0.107     -0.192     -0.145
      -0.011     +0.154     -0.511
      -0.396     -0.157     +0.258
      +0.066     +0.144     -0.027
      -0.053     +0.028     -0.065
      +0.085     +0.216     -0.314
      -0.057     -0.076     -0.006
      -0.280     +0.004     +0.138
      +0.025     +0.032     +0.011
      -0.138     -0.115     +0.170
vibration  8
      -0.110     +0.095     +0.135
      +0.003     +0.010     -0.023
      +0.004     +0.028     -0.238
      +0.139     -0.377     -0.571
      +0.109     +0.241     +0.335
      -0.019     -0.091     -0.033
      +0.054     -0.032     -0.058
      +0.112     -0.054     -0.268
      +0.050     +0.071     +0.026
      +0.239     -0.122     +0.114
      -0.027     -0.023     -0.006
      +0.087     +0.022     +0.161
vibration  9
      -0.019     +0.013     +0.053
      -0.007     -0.024     +0.012
      -0.128     -0.064     +0.053
      +0.024     +0.012     -0.271
      -0.130     -0.050     +0.132
      +0.036     +0.055     -0.158
      -0.001     -0.054     +0.109
      +0.062     -0.111     +0.423
      +0.004     -0.004     +0.069
      +0.066     +0.173     -0.622
      -0.006     +0.004     -0.020
      +0.045     +0.135     -0.418
vibration  10
      +0.159     -0.013     +0.049
      +0.148     +0.086     -0.006
      +0.144     +0.028     +0.202
      +0.130     +0.507     -0.268
      -0.208     -0.055     +0.178
      -0.286     -0.154     -0.057
      -0.126     +0.045     +0.020
      -0.489     -0.082     -0.163
      +0.056     +0.027     +0.016
      +0.002     +0.070     -0.148
      +0.054     -0.024     -0.003
      +0.148     +0.023     -0.009
vibration  11
      +0.004     -0.005     -0.020
      -0.011     -0.036     -0.099
      -0.035     +0.146     +0.424
      -0.067     -0.032     +0.289
      -0.059     +0.266     +0.645
      +0.016     +0.002     +0.031
      +0.019     -0.006     +0.033
      +0.025     +0.095     -0.309
      -0.008     -0.002     -0.023
      +0.010     +0.101     -0.287
      -0.004     +0.001     +0.006
      -0.026     -0.026     +0.065
vibration  12
      -0.010     +0.007     -0.003
      +0.029     -0.021     -0.051
      -0.118     +0.007     +0.190
      -0.016     +0.126     +0.104
      -0.143     +0.063     +0.381
      +0.004     +0.015     -0.043
      -0.013     +0.002     -0.075
      +0.008     -0.150     +0.543
      +0.014     +0.006     +0.048
      -0.053     -0.210     +0.594
      +0.001     -0.000     -0.013
      +0.041     +0.055     -0.129
vibration  13
      -0.045     +0.037     +0.053
      +0.056     -0.042     -0.062
      -0.140     -0.245     -0.479
      -0.077     +0.374     +0.425
      -0.188     -0.158     +0.029
      +0.009     +0.034     +0.008
      -0.095     -0.105     +0.015
      +0.244     -0.023     +0.009
      +0.095     +0.118     -0.048
      -0.094     -0.050     -0.167
      -0.006     -0.025     +0.014
      +0.116     -0.001     +0.357
vibration  14
      -0.006     -0.010     -0.075
      +0.001     +0.011     +0.068
      -0.179     +0.070     +0.435
      +0.077     -0.049     -0.425
      -0.070     -0.060     +0.011
      +0.015     +0.021     -0.037
      -0.005     -0.033     +0.067
      +0.024     -0.073     +0.290
      +0.018     +0.052     -0.156
      -0.003     -0.024     +0.039
      -0.006     -0.011     +0.037
      -0.047     -0.174     +0.636
vibration  15
      -0.018     -0.009     -0.123
      +0.010     -0.003     +0.080
      -0.287     +0.022     +0.439
      +0.060     +0.036     -0.349
      -0.128     -0.163     -0.077
      +0.027     +0.030     +0.108
      -0.096     -0.092     -0.095
      +0.300     +0.102     -0.384
      +0.092     +0.083     +0.126
      -0.177     -0.093     -0.060
      -0.008     -0.014     -0.027
      +0.179     +0.203     -0.301
vibration  16
      -0.106     +0.056     -0.034
      +0.103     -0.017     +0.019
      -0.439     -0.183     -0.023
      +0.042     +0.492     -0.119
      -0.337     -0.275     +0.062
      -0.010     -0.019     +0.053
      +0.119     +0.050     +0.006
      +0.087     +0.025     -0.165
      -0.083     -0.089     -0.020
      +0.443     -0.005     +0.006
      +0.003     +0.015     +0.002
      -0.129     -0.070     -0.081
vibration  17
      +0.065     -0.033     +0.002
      -0.040     +0.009     -0.007
      +0.016     -0.058     +0.033
      -0.029     -0.107     +0.048
      +0.108     +0.097     -0.022
      -0.055     +0.092     +0.015
      -0.098     -0.025     -0.013
      +0.235     +0.018     +0.042
      -0.022     -0.014     -0.007
      +0.900     -0.208     -0.001
      +0.027     -0.004     +0.001
      +0.128     -0.037     +0.004
vibration  18
      -0.016     +0.051     -0.030
      +0.010     -0.083     +0.028
      +0.437     +0.388     -0.020
      -0.003     -0.057     +0.021
      -0.211     -0.236     +0.037
      -0.025     -0.049     -0.024
      -0.044     +0.093     +0.024
      +0.650     -0.214     -0.008
      -0.022     -0.022     -0.008
      -0.045     +0.102     +0.026
      +0.008     +0.013     +0.004
      +0.204     -0.051     +0.003
vibration  19
      -0.042     +0.063     -0.022
      +0.027     -0.076     +0.028
      +0.460     +0.435     -0.041
      +0.011     -0.021     +0.006
      -0.242     -0.258     +0.040
      +0.014     +0.069     +0.015
      +0.007     -0.080     -0.022
      -0.549     +0.207     +0.025
      +0.016     +0.022     +0.007
      +0.214     -0.125     -0.024
      +0.002     -0.016     -0.004
      -0.187     +0.050     -0.001
vibration  20
      -0.017     +0.004     +0.001
      +0.008     +0.002     +0.000
      -0.005     +0.013     -0.005
      +0.007     +0.018     -0.010
      -0.016     -0.012     +0.003
      +0.035     +0.002     +0.004
      +0.006     -0.037     -0.010
      -0.264     +0.070     -0.004
      -0.038     -0.049     -0.017
      -0.038     -0.033     -0.015
      -0.034     +0.068     +0.017
      +0.931     -0.200     +0.017
vibration  21
      +0.093     +0.089     -0.006
      -0.009     +0.032     -0.011
      -0.289     -0.189     -0.017
      +0.045     -0.675     +0.218
      -0.502     -0.313     +0.001
      -0.021     -0.023     +0.001
      +0.007     +0.004     -0.000
      -0.080     -0.010     -0.009
      -0.004     -0.001     -0.002
      -0.011     +0.007     +0.005
      +0.002     -0.001     +0.000
      +0.006     -0.004     +0.001
vibration  22
      -0.223     -0.250     +0.039
      +0.150     +0.261     -0.057
      +0.245     +0.058     +0.072
      +0.243     -0.322     +0.131
      -0.508     -0.105     -0.010
      +0.262     -0.096     -0.019
      -0.218     +0.119     +0.025
      -0.184     -0.010     -0.047
      -0.027     +0.024     +0.007
      +0.285     +0.078     -0.012
      +0.042     -0.026     -0.005
      -0.068     +0.043     +0.001
vibration  23
      +0.092     +0.207     -0.029
      -0.095     -0.188     +0.039
      -0.382     -0.105     -0.053
      -0.167     +0.265     -0.139
      +0.336     +0.067     +0.056
      +0.250     -0.177     -0.016
      -0.229     +0.139     +0.021
      -0.492     -0.026     -0.067
      -0.089     +0.063     +0.009
      +0.230     +0.093     +0.055
      +0.083     -0.056     -0.009
      -0.001     +0.057     +0.021
vibration  24
      -0.022     -0.049     +0.006
      +0.017     +0.039     -0.007
      +0.089     +0.020     +0.006
      +0.033     -0.040     +0.025
      -0.048     -0.001     -0.021
      -0.076     +0.071     +0.010
      +0.156     -0.096     -0.016
      +0.153     +0.018     +0.032
      -0.519     +0.335     +0.054
      -0.324     -0.004     -0.021
      +0.310     -0.237     -0.043
      +0.472     +0.189     +0.091
vibration  25
      +0.000     -0.000     -0.000
      +0.000     +0.000     -0.000
      -0.000     +0.002     -0.000
      -0.001     +0.000     +0.001
      +0.000     -0.001     +0.000
      +0.000     -0.002     -0.001
      -0.003     -0.000     -0.000
      +0.011     +0.025     +0.007
      +0.011     +0.080     +0.024
      +0.001     +0.015     +0.005
      +0.001     -0.001     -0.000
      -0.134     -0.946     -0.281
vibration  26
      -0.011     +0.018     -0.007
      +0.003     -0.000     +0.000
      +0.142     -0.202     +0.081
      -0.036     -0.006     -0.006
      -0.000     +0.002     -0.000
      -0.014     -0.078     -0.021
      -0.004     +0.006     +0.001
      +0.209     +0.903     +0.251
      -0.001     -0.002     -0.001
      -0.009     -0.039     -0.012
      +0.000     -0.000     +0.000
      +0.007     +0.024     +0.008
vibration  27
      +0.024     -0.024     +0.011
      -0.028     -0.051     +0.011
      -0.255     +0.347     -0.139
      +0.626     +0.081     +0.091
      -0.318     +0.465     -0.213
      -0.002     -0.012     -0.003
      -0.001     +0.003     +0.001
      +0.032     +0.133     +0.037
      -0.000     -0.000     -0.000
      -0.005     -0.026     -0.008
      +0.000     -0.000     -0.000
      +0.001     +0.003     +0.001
vibration  28
      -0.036     +0.061     -0.023
      -0.003     -0.039     +0.012
      +0.466     -0.639     +0.255
      +0.217     +0.027     +0.031
      -0.238     +0.351     -0.159
      +0.005     +0.018     +0.005
      +0.001     +0.001     +0.000
      -0.053     -0.204     -0.056
      +0.000     +0.001     +0.000
      -0.002     -0.017     -0.006
      -0.000     +0.000     +0.000
      -0.002     -0.008     -0.002
vibration  29
      +0.001     -0.002     +0.001
      +0.007     -0.000     +0.001
      -0.015     +0.018     -0.007
      -0.068     -0.011     -0.010
      -0.009     +0.014     -0.006
      +0.005     -0.000     +0.000
      +0.011     +0.082     +0.026
      -0.005     -0.041     -0.012
      -0.002     +0.002     +0.000
      -0.163     -0.930     -0.304
      +0.001     -0.001     -0.000
      -0.006     -0.015     -0.004
vibration  30
      -0.008     +0.012     -0.005
      -0.088     +0.032     -0.027
      +0.086     -0.124     +0.049
      +0.715     +0.110     +0.099
      +0.331     -0.514     +0.231
      +0.001     +0.001     +0.000
      +0.001     +0.005     +0.002
      -0.004     -0.015     -0.004
      -0.000     +0.000     +0.000
      -0.010     -0.063     -0.021
      +0.000     -0.000     -0.000
      -0.001     -0.002     -0.001
