[Molden Format]
[FR-COORD] # Coordinates in bohr
  C    -3.515339    +0.149216    +0.856806 
  C    -5.222678    -0.388026    -0.869167 
  H    -4.072029    +0.979653    +2.627416 
  H    -7.191158    -0.010060    -0.565017 
  H    -4.721657    -1.219331    -2.650798 
  C    -0.771797    -0.338412    +0.535637 
  C    +0.903934    +1.402310    -0.086694 
  H    -0.106821    -2.235226    +0.850018 
  C    +3.598562    +0.735705    -0.343430 
  H    +0.375624    +3.328342    -0.430168 
  O    +4.443043    -1.368521    -0.004221 
  H    +4.823031    +2.291934    -0.873588 
[FREQ] # Frequencies in cm^-1
 -160.9297
  143.2545
  212.4187
  251.3474
  368.7079
  506.7361
  725.2455
  790.1335
  972.0425
 1037.8970
 1072.7582
 1118.8320
 1139.4858
 1163.1030
 1192.2171
 1255.2254
 1423.3256
 1460.1428
 1469.5502
 1566.9609
 1608.6338
 1815.1620
 1858.7196
 1909.3265
 3188.0753
 3312.9702
 3324.6219
 3327.7780
 3369.0353
 3398.3429
[FR-NORM-COORD] # Displacements in bohr
vibration  1
      -0.005     -0.119     +0.079
      +0.058     +0.148     -0.065
      -0.082     -0.497     +0.233
      +0.037     +0.023     -0.041
      +0.130     +0.486     -0.202
      +0.015     -0.026     +0.104
      -0.050     -0.045     -0.120
      +0.095     +0.045     +0.370
      -0.030     +0.000     -0.057
      -0.113     -0.103     -0.343
      +0.009     +0.034     +0.052
      -0.056     -0.000     -0.120
vibration  2
      -0.024     +0.058     +0.033
      +0.194     -0.127     -0.127
      -0.236     +0.118     -0.063
      +0.137     -0.223     -0.376
      +0.448     -0.200     -0.021
      +0.010     +0.125     +0.252
      -0.005     +0.074     +0.076
      +0.039     +0.167     +0.444
      -0.032     -0.011     +0.009
      -0.000     +0.044     -0.100
      -0.134     -0.082     -0.181
      +0.033     -0.030     +0.105
vibration  3
      -0.072     +0.120     -0.021
      -0.020     +0.071     -0.058
      -0.084     +0.472     -0.191
      +0.004     +0.358     -0.253
      +0.002     -0.258     +0.101
      -0.081     -0.144     +0.152
      -0.058     -0.196     +0.069
      -0.195     -0.164     +0.264
      -0.024     -0.001     -0.018
      -0.128     -0.227     -0.013
      +0.230     +0.093     -0.083
      -0.212     +0.134     -0.066
vibration  4
      -0.003     +0.012     -0.022
      -0.063     -0.010     +0.046
      +0.034     +0.008     -0.006
      -0.052     -0.015     +0.129
      -0.135     -0.023     +0.033
      +0.002     +0.013     -0.006
      -0.005     -0.034     -0.162
      +0.034     +0.073     +0.294
      +0.049     +0.036     +0.187
      -0.028     -0.082     -0.398
      +0.016     -0.021     -0.084
      +0.133     +0.165     +0.758
vibration  5
      -0.176     -0.006     -0.007
      -0.153     -0.067     -0.027
      -0.297     -0.395     +0.139
      -0.208     -0.461     +0.114
      -0.087     +0.275     -0.168
      -0.088     +0.196     +0.038
      +0.083     +0.051     +0.052
      -0.145     +0.179     +0.104
      +0.103     -0.082     -0.025
      +0.262     +0.091     -0.013
      +0.201     -0.044     -0.024
      +0.048     -0.082     -0.162
vibration  6
      +0.055     -0.092     -0.178
      -0.154     +0.017     -0.023
      +0.058     +0.015     -0.218
      -0.062     +0.275     +0.281
      -0.544     -0.085     -0.082
      +0.120     -0.021     +0.141
      +0.055     +0.044     +0.104
      +0.231     +0.069     +0.441
      +0.034     +0.036     -0.027
      -0.049     -0.033     -0.161
      -0.062     +0.000     -0.013
      +0.046     -0.056     -0.260
vibration  7
      -0.085     -0.176     +0.110
      -0.030     +0.025     -0.025
      -0.061     +0.274     -0.096
      +0.036     +0.657     -0.379
      -0.013     -0.353     +0.156
      +0.006     +0.047     -0.003
      -0.022     +0.105     -0.048
      +0.212     +0.092     -0.151
      +0.043     -0.024     -0.004
      +0.066     +0.139     -0.005
      +0.044     -0.032     +0.004
      +0.092     -0.039     +0.057
vibration  8
      +0.200     -0.045     -0.107
      +0.102     +0.005     +0.030
      +0.253     -0.028     -0.098
      +0.175     +0.117     +0.353
      -0.206     -0.002     -0.049
      -0.052     +0.121     -0.033
      -0.184     +0.151     +0.033
      +0.184     +0.224     +0.085
      -0.313     -0.198     +0.102
      -0.007     +0.158     -0.164
      +0.191     -0.049     -0.025
      -0.481     -0.096     -0.011
vibration  9
      +0.019     +0.001     -0.025
      +0.010     -0.013     -0.030
      -0.213     +0.003     -0.098
      +0.057     +0.029     +0.255
      -0.264     +0.032     -0.123
      +0.032     +0.034     +0.152
      -0.011     -0.028     -0.115
      -0.051     -0.083     -0.385
      -0.030     -0.023     -0.077
      +0.108     +0.130     +0.599
      +0.006     +0.009     +0.028
      +0.035     +0.097     +0.428
vibration  10
      +0.007     -0.079     +0.024
      +0.021     -0.024     +0.003
      -0.024     -0.037     -0.006
      +0.089     +0.360     -0.036
      -0.091     -0.056     -0.010
      -0.043     +0.128     -0.034
      +0.254     -0.174     +0.008
      -0.209     +0.075     +0.018
      -0.160     -0.001     +0.035
      +0.678     -0.097     -0.163
      -0.064     +0.089     -0.013
      -0.351     +0.131     -0.020
vibration  11
      -0.079     +0.061     +0.022
      -0.134     +0.032     -0.011
      +0.088     +0.096     +0.063
      -0.277     -0.401     -0.390
      +0.315     +0.048     +0.096
      +0.233     -0.080     +0.010
      +0.076     +0.043     -0.034
      +0.485     -0.003     -0.029
      -0.176     -0.059     +0.019
      +0.167     +0.081     +0.105
      +0.025     +0.014     -0.001
      -0.220     +0.007     +0.119
vibration  12
      -0.007     -0.023     +0.016
      -0.009     -0.075     +0.028
      +0.009     +0.495     -0.223
      +0.015     +0.085     -0.014
      +0.060     +0.675     -0.303
      +0.012     -0.003     +0.027
      -0.000     +0.006     +0.009
      -0.012     -0.057     -0.256
      +0.001     +0.003     +0.017
      -0.043     -0.052     -0.249
      +0.001     -0.002     -0.004
      -0.007     -0.014     -0.048
vibration  13
      -0.017     -0.007     +0.023
      +0.019     +0.065     -0.043
      -0.145     -0.029     -0.008
      -0.007     -0.263     +0.209
      -0.142     -0.308     +0.088
      +0.028     +0.004     +0.057
      +0.013     +0.008     +0.020
      -0.037     -0.132     -0.623
      -0.007     +0.004     +0.036
      -0.068     -0.116     -0.542
      -0.000     -0.001     -0.009
      -0.031     -0.022     -0.095
vibration  14
      -0.008     -0.110     +0.042
      +0.027     +0.103     -0.041
      +0.083     +0.571     -0.249
      -0.051     -0.582     +0.295
      -0.017     -0.076     +0.031
      -0.040     +0.010     -0.035
      +0.007     -0.020     -0.006
      +0.029     +0.087     +0.284
      +0.011     +0.005     -0.006
      +0.109     +0.044     +0.191
      -0.008     +0.006     +0.001
      +0.001     +0.014     -0.006
vibration  15
      -0.018     +0.023     +0.015
      +0.013     -0.013     -0.010
      -0.157     -0.021     -0.007
      +0.037     +0.050     +0.085
      -0.101     +0.006     -0.048
      +0.028     -0.009     +0.024
      -0.016     -0.022     -0.137
      +0.044     -0.013     -0.033
      +0.021     +0.043     +0.210
      +0.055     +0.092     +0.396
      -0.005     -0.011     -0.049
      -0.131     -0.186     -0.810
vibration  16
      +0.101     -0.079     -0.096
      -0.088     +0.043     +0.046
      +0.575     -0.022     +0.026
      -0.189     -0.173     -0.408
      +0.422     -0.013     +0.201
      -0.065     +0.077     +0.114
      -0.025     -0.036     -0.039
      -0.231     -0.044     -0.281
      +0.036     +0.016     +0.024
      +0.025     +0.001     +0.072
      -0.008     -0.000     -0.006
      +0.004     -0.003     -0.108
vibration  17
      +0.001     -0.038     +0.023
      -0.011     +0.007     -0.005
      -0.060     +0.047     -0.032
      -0.021     +0.006     -0.058
      -0.028     -0.034     +0.005
      +0.081     +0.044     -0.025
      +0.082     +0.042     -0.021
      -0.676     -0.178     +0.151
      -0.060     -0.014     +0.012
      -0.639     -0.131     +0.127
      +0.018     -0.007     -0.001
      +0.024     -0.092     +0.017
vibration  18
      -0.039     +0.040     +0.085
      +0.004     -0.048     -0.111
      +0.794     +0.062     +0.345
      +0.021     +0.004     +0.025
      -0.399     -0.045     -0.233
      +0.002     +0.001     +0.019
      +0.002     +0.007     -0.005
      -0.048     -0.022     -0.005
      -0.002     +0.001     +0.001
      +0.003     +0.012     +0.006
      +0.001     -0.000     -0.000
      +0.019     -0.015     -0.001
vibration  19
      -0.001     +0.006     +0.008
      -0.006     -0.003     -0.008
      +0.021     +0.012     +0.013
      -0.006     +0.008     -0.018
      -0.025     -0.004     -0.012
      -0.007     +0.118     -0.024
      +0.023     -0.117     +0.021
      +0.569     +0.300     -0.145
      +0.011     +0.007     -0.003
      -0.630     -0.282     +0.161
      -0.003     -0.018     +0.004
      -0.136     +0.112     -0.005
vibration  20
      -0.009     +0.000     -0.011
      +0.003     -0.000     +0.002
      +0.027     -0.006     +0.001
      +0.018     +0.022     +0.059
      +0.061     +0.003     +0.020
      -0.029     +0.005     +0.006
      +0.017     -0.032     +0.004
      +0.156     +0.059     -0.040
      -0.068     -0.030     +0.017
      -0.036     -0.052     +0.019
      +0.006     +0.082     -0.019
      +0.709     -0.661     +0.040
vibration  21
      +0.116     +0.010     +0.057
      -0.004     +0.010     +0.021
      -0.260     +0.008     -0.052
      -0.177     -0.257     -0.648
      -0.592     +0.004     -0.162
      -0.012     +0.010     -0.015
      -0.027     -0.017     +0.011
      +0.000     +0.025     +0.022
      +0.005     -0.005     +0.002
      +0.069     +0.000     -0.022
      -0.002     +0.012     -0.003
      +0.077     -0.064     -0.001
vibration  22
      -0.134     -0.023     -0.138
      +0.163     +0.044     +0.155
      +0.198     -0.067     -0.048
      +0.070     -0.192     -0.344
      -0.408     +0.084     +0.010
      -0.255     -0.175     +0.091
      +0.283     +0.167     -0.082
      +0.373     -0.027     -0.072
      -0.111     +0.137     -0.016
      -0.333     +0.063     +0.059
      +0.048     -0.107     +0.017
      -0.009     +0.054     -0.005
vibration  23
      +0.317     +0.060     +0.202
      -0.242     -0.067     -0.225
      -0.345     +0.047     +0.055
      -0.153     +0.155     +0.369
      +0.489     -0.084     -0.070
      -0.198     -0.098     +0.024
      +0.141     +0.080     -0.033
      +0.181     +0.010     +0.016
      -0.097     +0.161     -0.018
      -0.094     +0.039     -0.019
      +0.049     -0.112     +0.017
      +0.100     +0.001     -0.023
vibration  24
      -0.076     -0.022     -0.032
      +0.039     +0.013     +0.038
      +0.051     +0.003     -0.014
      +0.031     +0.001     -0.053
      -0.065     +0.002     +0.026
      +0.172     +0.123     -0.047
      -0.154     -0.166     +0.058
      -0.218     +0.042     +0.016
      -0.200     +0.445     -0.069
      +0.437     -0.066     -0.049
      +0.117     -0.287     +0.046
      +0.522     -0.114     -0.051
vibration  25
      +0.000     -0.000     -0.000
      +0.000     -0.000     +0.000
      -0.000     +0.002     +0.003
      -0.002     +0.001     +0.001
      +0.000     -0.001     -0.001
      +0.000     +0.000     -0.000
      -0.000     -0.005     +0.001
      +0.000     -0.006     +0.001
      +0.051     +0.064     -0.022
      -0.008     +0.070     -0.014
      +0.000     -0.001     +0.000
      -0.607     -0.744     +0.257
vibration  26
      -0.018     +0.025     +0.053
      +0.033     +0.007     +0.025
      +0.206     -0.307     -0.652
      -0.494     +0.098     +0.083
      +0.107     -0.170     -0.363
      +0.000     -0.001     +0.000
      +0.001     -0.001     +0.000
      -0.003     +0.009     +0.001
      -0.000     +0.000     +0.000
      -0.003     +0.010     -0.001
      +0.000     -0.000     -0.000
      -0.000     -0.000     -0.000
vibration  27
      +0.005     -0.018     -0.042
      +0.023     +0.013     +0.037
      -0.135     +0.202     +0.433
      -0.331     +0.065     +0.057
      +0.125     -0.201     -0.430
      +0.013     -0.051     +0.009
      +0.002     +0.006     -0.002
      -0.193     +0.581     -0.099
      +0.000     -0.001     -0.000
      +0.016     -0.052     +0.009
      +0.000     +0.000     -0.000
      -0.004     -0.003     +0.001
vibration  28
      -0.004     +0.015     +0.033
      -0.019     -0.011     -0.030
      +0.107     -0.161     -0.338
      +0.269     -0.054     -0.045
      -0.101     +0.165     +0.351
      +0.018     -0.063     +0.011
      +0.002     +0.006     -0.001
      -0.245     +0.726     -0.120
      +0.001     -0.001     +0.000
      +0.012     -0.038     +0.006
      +0.000     +0.001     -0.000
      -0.008     -0.007     +0.002
vibration  29
      +0.000     -0.001     -0.002
      +0.000     +0.000     +0.000
      -0.008     +0.008     +0.018
      -0.006     +0.001     +0.001
      +0.001     -0.001     -0.002
      +0.006     -0.002     -0.000
      +0.020     -0.083     +0.015
      -0.020     +0.068     -0.012
      -0.006     -0.004     +0.002
      -0.257     +0.942     -0.168
      -0.000     +0.000     -0.000
      +0.047     +0.048     -0.018
vibration  30
      -0.003     +0.006     +0.012
      -0.073     +0.033     +0.055
      +0.036     -0.059     -0.125
      +0.718     -0.135     -0.104
      +0.151     -0.267     -0.575
      +0.001     -0.000     +0.000
      +0.000     -0.001     +0.000
      +0.000     +0.003     +0.000
      +0.000     +0.000     +0.000
      -0.002     +0.006     -0.001
      -0.000     +0.000     -0.000
      -0.001     -0.001     +0.000
