[Molden Format]
[FR-COORD] # Coordinates in bohr
  C    -3.589685    +0.687852    -0.205109 
  C    -5.649071    -0.711759    -0.050118 
  H    -3.724712    +2.643902    -0.737474 
  H    -7.485374    +0.049017    -0.443025 
  H    -5.575725    -2.672298    +0.471385 
  C    -1.041638    -0.271336    +0.309534 
  C    +1.026398    +1.116149    +0.164049 
  H    -0.910453    -2.233600    +0.829357 
  C    +3.604259    +0.106375    +0.708330 
  H    +0.929583    +3.078349    -0.362435 
  O    +5.032872    -0.764517    -0.848802 
  H    +4.161840    +0.227094    +2.679386 
[FREQ] # Frequencies in cm^-1
 -227.2516
  126.5786
  194.0492
  200.8147
  416.7180
  499.8424
  614.0242
  766.1819
  943.3267
 1014.6005
 1077.3277
 1100.9719
 1136.1642
 1145.5970
 1169.9110
 1291.2760
 1427.0086
 1468.0223
 1482.9195
 1553.3743
 1612.8698
 1816.2958
 1877.7660
 1904.6371
 3166.1041
 3312.8504
 3319.3231
 3322.7528
 3333.3091
 3401.0046
[FR-NORM-COORD] # Displacements in bohr
vibration  1
      +0.011     -0.008     +0.026
      +0.014     -0.015     -0.009
      -0.005     +0.029     +0.164
      +0.004     +0.014     +0.092
      +0.025     -0.049     -0.137
      +0.033     -0.039     -0.121
      -0.009     +0.045     +0.090
      +0.082     -0.109     -0.403
      +0.053     +0.156     -0.013
      -0.095     +0.136     +0.434
      -0.095     -0.143     +0.017
      +0.280     +0.608     -0.104
vibration  2
      +0.007     +0.030     +0.110
      +0.079     -0.113     -0.222
      -0.050     +0.049     +0.191
      +0.076     -0.214     -0.403
      +0.148     -0.141     -0.336
      +0.007     +0.124     +0.269
      +0.020     +0.078     +0.024
      +0.010     +0.185     +0.501
      +0.014     +0.028     -0.038
      +0.047     +0.006     -0.244
      -0.117     -0.109     -0.083
      +0.129     +0.093     -0.076
vibration  3
      +0.020     -0.042     +0.073
      -0.117     +0.144     -0.093
      +0.193     -0.015     +0.125
      -0.015     +0.348     -0.177
      -0.349     +0.117     -0.163
      -0.031     -0.178     +0.125
      -0.040     -0.175     -0.026
      -0.076     -0.148     +0.235
      +0.075     +0.120     -0.048
      -0.150     -0.210     -0.151
      +0.083     +0.060     -0.008
      +0.195     +0.496     -0.105
vibration  4
      +0.073     -0.068     -0.195
      +0.009     +0.052     +0.021
      +0.170     -0.178     -0.625
      +0.060     +0.045     -0.233
      -0.101     +0.166     +0.466
      +0.024     -0.040     +0.090
      +0.006     -0.003     +0.201
      +0.009     -0.030     +0.126
      +0.031     +0.005     +0.051
      -0.014     -0.010     +0.178
      -0.129     +0.044     -0.121
      +0.213     -0.043     -0.001
vibration  5
      +0.203     -0.113     +0.064
      +0.084     +0.082     -0.003
      +0.319     -0.054     +0.246
      +0.168     +0.350     +0.123
      -0.136     +0.022     -0.201
      +0.149     -0.126     -0.028
      -0.022     +0.085     -0.123
      +0.306     -0.084     +0.080
      -0.173     +0.029     +0.038
      -0.150     +0.028     -0.278
      -0.191     +0.033     +0.035
      -0.338     -0.269     +0.101
vibration  6
      -0.060     -0.190     +0.043
      -0.221     +0.001     -0.028
      -0.070     -0.209     -0.050
      -0.066     +0.304     -0.198
      -0.601     +0.005     +0.036
      +0.097     +0.071     +0.021
      +0.049     +0.205     +0.013
      +0.338     +0.060     -0.068
      +0.056     -0.020     -0.040
      +0.046     +0.239     +0.146
      +0.085     -0.059     +0.001
      -0.060     -0.277     +0.009
vibration  7
      -0.053     -0.035     -0.073
      -0.080     -0.015     +0.016
      -0.146     +0.052     +0.260
      -0.115     +0.140     +0.468
      -0.088     -0.113     -0.348
      +0.030     +0.037     -0.065
      +0.104     -0.038     +0.002
      -0.028     +0.118     +0.266
      +0.105     +0.003     +0.147
      +0.245     -0.147     -0.436
      -0.087     +0.030     -0.039
      +0.263     +0.047     +0.092
vibration  8
      +0.038     -0.035     -0.170
      +0.032     +0.017     +0.018
      +0.050     +0.066     +0.204
      -0.054     +0.160     +0.708
      +0.124     -0.094     -0.414
      -0.043     -0.019     +0.090
      -0.110     +0.085     +0.102
      -0.033     +0.019     +0.225
      -0.020     +0.012     -0.104
      -0.227     +0.049     -0.003
      +0.092     -0.050     +0.007
      -0.082     -0.116     -0.075
vibration  9
      -0.045     +0.066     +0.042
      -0.022     +0.025     -0.007
      +0.092     +0.065     +0.006
      -0.108     -0.288     -0.195
      +0.235     +0.068     +0.133
      +0.008     -0.132     -0.070
      -0.091     +0.104     +0.038
      +0.006     -0.091     +0.083
      +0.144     +0.070     +0.056
      -0.393     -0.056     -0.490
      +0.014     -0.049     -0.023
      +0.019     -0.514     +0.122
vibration  10
      -0.081     +0.064     -0.067
      -0.103     +0.028     -0.025
      +0.091     +0.081     -0.062
      -0.332     -0.372     +0.274
      +0.361     +0.029     -0.054
      +0.121     -0.076     +0.140
      +0.108     -0.037     -0.117
      +0.199     -0.138     -0.091
      +0.007     +0.055     -0.001
      -0.072     +0.121     +0.514
      -0.043     +0.004     +0.011
      -0.174     -0.196     +0.066
vibration  11
      +0.042     -0.032     -0.001
      +0.079     -0.024     +0.006
      -0.076     -0.073     -0.110
      +0.203     +0.325     +0.103
      -0.216     -0.055     -0.094
      -0.126     +0.051     +0.058
      -0.084     -0.007     -0.193
      -0.228     +0.006     -0.103
      +0.170     +0.021     +0.131
      -0.357     +0.180     +0.540
      -0.025     -0.012     -0.033
      +0.090     -0.293     +0.170
vibration  12
      +0.005     -0.009     -0.032
      +0.014     -0.026     -0.083
      -0.059     +0.098     +0.377
      -0.009     +0.096     +0.260
      -0.088     +0.147     +0.576
      -0.014     +0.024     +0.074
      +0.002     -0.006     -0.001
      +0.034     -0.135     -0.536
      +0.011     +0.010     +0.006
      +0.015     -0.079     -0.276
      -0.006     -0.001     +0.001
      -0.010     -0.027     +0.013
vibration  13
      +0.001     -0.003     -0.050
      -0.000     +0.013     +0.112
      -0.087     -0.016     -0.077
      +0.091     -0.009     -0.365
      -0.046     -0.153     -0.511
      -0.008     +0.029     +0.080
      +0.030     -0.032     +0.020
      -0.026     -0.153     -0.601
      +0.007     +0.055     -0.018
      +0.007     -0.121     -0.305
      -0.012     -0.008     +0.008
      -0.107     -0.155     +0.025
vibration  14
      +0.021     -0.044     -0.017
      -0.032     +0.058     +0.027
      +0.292     -0.005     +0.063
      -0.136     -0.272     -0.100
      +0.316     +0.017     -0.157
      -0.025     -0.004     +0.053
      -0.104     +0.100     -0.071
      +0.310     -0.068     -0.276
      +0.012     -0.174     +0.097
      +0.065     +0.100     -0.109
      +0.021     +0.030     -0.027
      +0.358     +0.521     -0.043
vibration  15
      +0.011     -0.027     -0.109
      -0.006     +0.017     +0.070
      -0.086     +0.195     +0.732
      +0.058     -0.121     -0.497
      -0.024     +0.033     +0.132
      +0.001     -0.003     -0.010
      +0.004     -0.007     -0.019
      -0.040     +0.062     +0.243
      +0.003     +0.006     -0.002
      -0.030     +0.054     +0.215
      -0.001     -0.001     -0.000
      -0.014     -0.028     +0.006
vibration  16
      -0.091     +0.146     -0.048
      +0.057     -0.061     +0.022
      -0.576     +0.110     -0.087
      +0.213     +0.298     -0.057
      -0.376     -0.077     -0.019
      +0.134     -0.109     +0.043
      -0.010     +0.056     -0.017
      +0.122     -0.113     +0.039
      -0.031     -0.098     +0.026
      -0.380     +0.022     -0.049
      +0.010     +0.017     -0.006
      +0.147     +0.277     -0.048
vibration  17
      -0.056     +0.063     -0.022
      +0.042     -0.039     +0.014
      +0.144     +0.078     -0.005
      +0.135     +0.167     -0.030
      -0.133     -0.042     -0.003
      -0.057     -0.091     +0.018
      -0.065     +0.022     -0.016
      +0.405     -0.057     +0.057
      +0.024     +0.048     -0.000
      +0.821     +0.093     +0.063
      +0.000     -0.010     -0.003
      -0.032     -0.132     +0.034
vibration  18
      +0.023     +0.073     -0.017
      -0.038     -0.093     +0.021
      +0.654     +0.137     +0.031
      -0.052     -0.092     +0.018
      -0.401     -0.126     -0.009
      +0.014     -0.029     +0.009
      +0.039     +0.063     -0.012
      -0.567     -0.079     -0.044
      -0.011     -0.019     +0.000
      +0.028     +0.068     -0.017
      -0.001     +0.005     +0.001
      +0.023     +0.067     -0.015
vibration  19
      +0.018     -0.055     +0.016
      +0.010     +0.060     -0.015
      -0.485     -0.108     -0.022
      -0.028     -0.039     +0.008
      +0.197     +0.071     +0.002
      +0.006     -0.090     +0.025
      +0.016     +0.093     -0.021
      -0.677     -0.159     -0.035
      -0.001     -0.004     +0.000
      +0.423     +0.127     +0.007
      -0.000     +0.002     -0.001
      -0.011     +0.037     +0.003
vibration  20
      +0.001     -0.002     +0.002
      -0.001     +0.002     -0.000
      -0.011     -0.005     -0.002
      -0.002     -0.003     -0.001
      +0.007     +0.002     -0.001
      -0.004     -0.001     +0.004
      +0.007     -0.004     -0.026
      -0.008     -0.007     -0.021
      -0.055     +0.016     -0.048
      +0.004     +0.004     +0.017
      -0.014     +0.018     +0.071
      +0.855     -0.412     -0.293
vibration  21
      -0.121     -0.035     -0.003
      -0.006     -0.028     +0.007
      +0.326     +0.000     +0.034
      +0.307     +0.613     -0.129
      +0.591     +0.025     +0.056
      +0.000     -0.008     +0.002
      +0.056     +0.021     +0.002
      -0.136     -0.029     -0.007
      -0.007     -0.011     -0.006
      -0.104     +0.014     -0.016
      -0.003     +0.004     +0.004
      -0.002     +0.035     -0.012
vibration  22
      +0.230     +0.118     -0.007
      -0.249     -0.150     +0.013
      -0.219     +0.118     -0.054
      -0.004     +0.464     -0.123
      +0.509     -0.139     +0.091
      +0.200     +0.084     +0.000
      -0.244     -0.090     -0.007
      -0.188     +0.082     -0.047
      -0.011     +0.037     +0.042
      +0.282     -0.080     +0.055
      +0.028     -0.021     -0.029
      +0.052     -0.091     +0.038
vibration  23
      -0.274     -0.120     +0.004
      +0.184     +0.120     -0.012
      +0.379     -0.085     +0.062
      +0.042     -0.263     +0.072
      -0.282     +0.123     -0.062
      +0.322     +0.133     +0.001
      -0.249     -0.115     -0.004
      -0.454     +0.096     -0.085
      -0.054     +0.059     +0.075
      +0.238     -0.113     +0.062
      +0.052     -0.036     -0.053
      +0.093     -0.105     +0.046
vibration  24
      +0.040     +0.014     +0.005
      -0.019     -0.012     +0.001
      -0.067     +0.001     -0.009
      -0.007     +0.015     -0.011
      +0.024     -0.011     +0.008
      -0.133     -0.055     +0.007
      +0.180     +0.032     -0.026
      +0.141     -0.057     -0.017
      -0.487     +0.265     +0.416
      -0.145     +0.039     +0.018
      +0.293     -0.176     -0.314
      +0.382     -0.099     +0.199
vibration  25
      -0.000     -0.000     -0.000
      -0.000     +0.000     +0.000
      +0.001     -0.003     +0.001
      +0.001     -0.001     +0.000
      +0.000     +0.002     -0.001
      -0.000     -0.001     +0.000
      +0.001     +0.002     -0.001
      -0.002     +0.011     -0.003
      -0.022     -0.005     -0.080
      -0.004     -0.026     +0.003
      -0.001     +0.001     +0.001
      +0.281     +0.053     +0.954
vibration  26
      +0.006     -0.029     +0.008
      -0.023     -0.019     +0.003
      -0.024     +0.363     -0.099
      +0.264     -0.117     +0.058
      -0.017     +0.325     -0.087
      -0.001     +0.066     -0.017
      -0.004     -0.020     +0.005
      +0.045     -0.751     +0.198
      -0.001     +0.000     -0.001
      -0.012     +0.205     -0.055
      +0.000     -0.000     -0.000
      +0.006     -0.001     +0.013
vibration  27
      -0.005     +0.018     -0.005
      +0.033     +0.029     -0.004
      +0.016     -0.238     +0.065
      -0.377     +0.163     -0.082
      +0.022     -0.482     +0.129
      +0.003     +0.027     -0.007
      -0.002     -0.054     +0.014
      +0.021     -0.291     +0.077
      -0.001     +0.000     -0.001
      -0.035     +0.622     -0.168
      +0.000     -0.000     -0.000
      +0.007     -0.003     +0.019
vibration  28
      +0.003     +0.017     -0.004
      -0.027     -0.031     +0.005
      +0.007     -0.167     +0.045
      +0.284     -0.124     +0.062
      -0.019     +0.453     -0.121
      +0.005     -0.034     +0.009
      +0.002     -0.056     +0.015
      -0.025     +0.404     -0.107
      -0.001     -0.000     -0.001
      -0.034     +0.659     -0.178
      -0.000     -0.000     +0.000
      +0.003     -0.003     +0.011
vibration  29
      -0.001     -0.073     +0.019
      +0.007     +0.028     -0.007
      -0.057     +0.822     -0.224
      -0.017     +0.010     -0.004
      +0.013     -0.296     +0.079
      +0.000     -0.028     +0.007
      +0.002     -0.018     +0.005
      -0.021     +0.326     -0.086
      -0.000     +0.000     -0.001
      -0.009     +0.226     -0.061
      -0.000     -0.000     +0.000
      +0.001     -0.001     +0.005
vibration  30
      +0.000     +0.017     -0.004
      -0.064     +0.068     -0.025
      +0.009     -0.168     +0.045
      +0.729     -0.294     +0.154
      +0.010     -0.545     +0.144
      +0.001     +0.002     -0.001
      -0.000     +0.000     -0.000
      +0.005     -0.029     +0.008
      +0.000     -0.000     +0.000
      -0.001     -0.004     +0.001
      -0.000     +0.000     +0.000
      -0.000     +0.000     -0.000
