[Molden Format]
[FR-COORD] # Coordinates in bohr
  C    -3.728682    +0.984720    -0.101818 
  C    -5.037151    -1.137089    -0.176239 
  H    -4.715516    +2.750463    -0.274780 
  H    -7.050747    -1.118841    -0.405044 
  H    -4.175317    -2.965965    -0.017938 
  C    -0.963752    +1.222586    +0.201626 
  C    +0.675771    -0.644245    +0.416767 
  H    -0.274014    +3.134724    +0.239949 
  C    +3.446518    -0.207719    +0.733489 
  H    +0.088191    -2.588745    +0.377709 
  O    +4.967695    -0.114548    -0.969588 
  H    +4.051597    +0.007626    +2.682317 
[FREQ] # Frequencies in cm^-1
 -248.1586
 -110.6992
  175.3173
  212.6314
  352.1142
  555.0962
  655.6591
  756.9727
  918.4703
  998.6870
 1076.0567
 1113.8831
 1129.3522
 1161.6496
 1169.2250
 1224.5810
 1434.3808
 1472.9757
 1518.4192
 1553.4227
 1617.0167
 1832.3665
 1863.3533
 1904.2930
 3166.1308
 3315.3077
 3324.0710
 3336.6906
 3341.9326
 3401.9389
[FR-NORM-COORD] # Displacements in bohr
vibration  1
      +0.013     +0.008     +0.019
      +0.009     +0.011     -0.013
      +0.003     +0.015     +0.144
      -0.004     +0.022     +0.105
      +0.019     +0.002     -0.174
      +0.034     -0.002     -0.136
      -0.013     -0.012     +0.122
      +0.084     -0.014     -0.477
      +0.015     -0.132     +0.022
      -0.097     +0.002     +0.557
      -0.052     +0.127     -0.023
      +0.117     -0.542     +0.038
vibration  2
      -0.022     -0.006     +0.127
      +0.032     -0.029     -0.156
      -0.082     -0.004     +0.492
      +0.013     -0.044     +0.005
      +0.098     -0.034     -0.577
      -0.010     +0.020     -0.005
      +0.005     +0.046     +0.105
      -0.015     +0.026     -0.179
      +0.010     +0.111     -0.012
      +0.016     +0.039     +0.325
      -0.015     -0.131     -0.046
      +0.035     +0.416     -0.053
vibration  3
      +0.072     -0.000     -0.136
      +0.074     -0.002     -0.099
      +0.115     -0.014     -0.526
      +0.116     -0.023     -0.465
      +0.035     +0.014     +0.306
      +0.029     +0.004     +0.215
      +0.013     -0.006     +0.239
      +0.030     +0.002     +0.299
      +0.027     +0.003     +0.035
      +0.021     -0.004     +0.107
      -0.197     +0.001     -0.169
      +0.259     +0.029     -0.044
vibration  4
      +0.036     -0.015     -0.007
      -0.200     +0.131     -0.016
      +0.207     +0.084     +0.009
      -0.200     +0.369     -0.002
      -0.400     +0.033     -0.042
      +0.046     -0.215     -0.017
      +0.063     -0.195     +0.058
      +0.112     -0.233     -0.090
      +0.037     +0.124     +0.002
      +0.159     -0.224     +0.147
      +0.020     +0.093     -0.014
      +0.007     +0.508     -0.032
vibration  5
      +0.120     +0.095     +0.016
      +0.250     +0.024     +0.047
      +0.082     +0.084     +0.161
      +0.233     -0.140     +0.212
      +0.411     +0.090     -0.085
      +0.090     -0.049     -0.077
      -0.085     -0.187     -0.080
      +0.264     -0.113     -0.014
      -0.189     +0.046     +0.023
      -0.111     -0.167     -0.144
      -0.176     +0.041     +0.045
      -0.294     +0.448     +0.010
vibration  6
      -0.108     +0.118     +0.045
      +0.075     +0.018     -0.021
      -0.074     +0.102     -0.272
      +0.120     -0.279     -0.410
      +0.295     +0.150     +0.295
      -0.087     -0.049     +0.084
      -0.108     -0.100     +0.052
      +0.059     -0.095     -0.224
      -0.019     -0.011     -0.150
      -0.120     -0.103     +0.443
      +0.176     +0.026     +0.011
      -0.129     +0.094     -0.120
vibration  7
      +0.144     -0.123     +0.124
      -0.022     -0.026     -0.026
      +0.137     -0.154     -0.177
      +0.031     +0.331     -0.488
      -0.395     -0.180     +0.229
      +0.076     +0.093     +0.025
      -0.034     +0.032     -0.050
      +0.067     +0.098     -0.249
      -0.114     -0.003     -0.076
      -0.212     +0.083     +0.236
      -0.000     +0.005     +0.034
      -0.230     +0.077     -0.045
vibration  8
      +0.082     -0.053     -0.175
      -0.000     -0.017     +0.025
      -0.011     -0.072     +0.158
      -0.076     +0.185     +0.690
      -0.129     -0.111     -0.371
      +0.009     +0.074     +0.101
      -0.115     -0.026     +0.102
      +0.014     +0.068     +0.213
      -0.054     -0.035     -0.113
      -0.277     +0.028     +0.083
      +0.096     +0.028     +0.004
      -0.115     +0.139     -0.109
vibration  9
      -0.087     +0.012     +0.045
      -0.054     -0.055     -0.006
      -0.198     -0.048     +0.003
      -0.037     -0.110     -0.200
      -0.065     -0.053     +0.087
      +0.116     +0.142     -0.084
      -0.093     -0.098     +0.055
      +0.181     +0.118     +0.065
      +0.126     -0.101     +0.074
      -0.425     +0.019     -0.420
      +0.020     +0.042     -0.033
      +0.130     +0.594     -0.009
vibration  10
      -0.119     +0.029     -0.066
      -0.113     -0.048     -0.012
      -0.094     +0.047     -0.100
      -0.146     -0.397     +0.215
      +0.173     +0.072     -0.097
      +0.187     +0.074     +0.155
      +0.153     -0.017     -0.145
      +0.293     +0.050     -0.157
      -0.038     -0.038     -0.001
      +0.001     +0.016     +0.625
      -0.056     +0.003     +0.021
      -0.170     +0.162     +0.018
vibration  11
      +0.050     -0.006     -0.017
      +0.085     +0.019     +0.011
      -0.034     -0.068     -0.131
      +0.076     +0.330     +0.131
      -0.153     -0.098     -0.132
      -0.153     -0.007     +0.091
      -0.101     -0.035     -0.218
      -0.170     +0.001     -0.194
      +0.189     -0.016     +0.155
      -0.330     +0.015     +0.580
      -0.027     +0.006     -0.040
      +0.202     +0.254     +0.117
vibration  12
      +0.001     +0.000     +0.004
      +0.017     -0.004     -0.137
      -0.037     +0.011     +0.333
      -0.049     +0.019     +0.449
      -0.087     +0.025     +0.756
      -0.008     -0.001     +0.032
      -0.000     +0.001     -0.003
      +0.022     -0.006     -0.266
      +0.006     -0.003     +0.006
      +0.005     +0.001     -0.109
      -0.003     +0.001     -0.000
      +0.003     +0.015     +0.005
vibration  13
      +0.005     -0.003     -0.004
      -0.002     +0.006     +0.026
      +0.045     +0.001     -0.182
      -0.002     -0.007     +0.028
      +0.049     +0.004     -0.274
      -0.021     -0.006     +0.095
      +0.007     +0.012     +0.020
      +0.054     -0.015     -0.787
      +0.003     -0.018     +0.005
      +0.054     +0.008     -0.498
      -0.005     +0.005     +0.002
      -0.015     +0.043     +0.002
vibration  14
      +0.052     -0.037     +0.007
      -0.017     +0.053     -0.004
      +0.285     +0.094     +0.059
      -0.010     -0.184     -0.017
      +0.237     +0.174     +0.047
      -0.074     -0.062     -0.024
      +0.091     +0.106     +0.017
      -0.432     +0.062     +0.069
      -0.020     -0.199     -0.022
      -0.088     +0.159     +0.054
      -0.012     +0.043     +0.010
      -0.178     +0.661     -0.070
vibration  15
      +0.014     -0.004     -0.128
      -0.008     +0.003     +0.084
      -0.095     +0.025     +0.791
      +0.063     -0.014     -0.549
      -0.013     +0.001     +0.093
      -0.005     +0.001     +0.038
      -0.000     -0.002     -0.014
      +0.020     -0.004     -0.155
      +0.005     +0.001     +0.004
      -0.006     -0.000     +0.016
      -0.002     -0.000     -0.001
      +0.001     +0.001     +0.005
vibration  16
      -0.103     +0.075     -0.014
      +0.109     -0.036     +0.014
      -0.456     -0.123     -0.044
      +0.110     +0.549     -0.011
      -0.396     -0.266     -0.032
      -0.017     -0.016     -0.005
      +0.100     +0.019     +0.024
      +0.062     -0.039     +0.026
      -0.034     -0.090     -0.028
      +0.313     -0.050     +0.018
      -0.011     +0.016     +0.013
      -0.114     +0.244     -0.040
vibration  17
      -0.062     +0.045     -0.008
      +0.040     -0.026     +0.005
      +0.088     +0.132     +0.006
      +0.038     +0.076     +0.001
      -0.156     -0.119     -0.013
      +0.046     -0.106     +0.007
      +0.080     +0.025     +0.011
      -0.147     -0.041     -0.015
      -0.015     +0.053     -0.013
      -0.860     +0.323     -0.102
      -0.003     -0.009     +0.007
      +0.013     -0.140     -0.007
vibration  18
      +0.000     -0.065     +0.002
      +0.006     +0.099     -0.003
      -0.550     -0.380     -0.049
      +0.018     +0.102     -0.001
      +0.254     +0.230     +0.021
      +0.041     +0.020     +0.005
      +0.047     -0.080     +0.009
      -0.558     +0.234     -0.070
      -0.008     +0.029     -0.010
      -0.116     -0.034     -0.017
      -0.003     -0.006     +0.004
      -0.017     -0.098     +0.005
vibration  19
      +0.032     -0.057     +0.005
      -0.019     +0.061     -0.004
      -0.420     -0.322     -0.037
      -0.011     +0.013     -0.001
      +0.211     +0.178     +0.018
      -0.029     -0.068     -0.002
      -0.009     +0.092     -0.003
      +0.662     -0.323     +0.087
      +0.003     -0.012     +0.003
      -0.204     +0.161     -0.022
      +0.001     +0.003     -0.001
      +0.005     +0.050     -0.006
vibration  20
      +0.001     -0.001     +0.001
      -0.001     +0.001     -0.000
      -0.003     -0.004     -0.002
      -0.001     -0.000     +0.001
      +0.005     +0.004     -0.001
      -0.003     +0.004     +0.004
      +0.005     -0.005     -0.026
      -0.004     +0.004     -0.023
      -0.060     -0.012     -0.044
      +0.006     -0.003     +0.019
      -0.015     +0.003     +0.073
      +0.915     +0.104     -0.372
vibration  21
      -0.102     -0.079     -0.009
      +0.006     -0.034     +0.002
      +0.327     +0.158     +0.032
      +0.031     +0.704     -0.020
      +0.531     +0.241     +0.053
      +0.027     +0.016     +0.002
      -0.015     +0.003     -0.002
      +0.085     -0.002     +0.009
      +0.001     +0.003     +0.002
      +0.010     -0.004     +0.002
      +0.001     -0.000     -0.001
      +0.005     -0.005     +0.002
vibration  22
      +0.234     +0.224     +0.018
      -0.173     -0.246     -0.011
      -0.252     -0.012     -0.029
      -0.196     +0.391     -0.036
      +0.541     +0.060     +0.058
      -0.222     +0.114     -0.028
      +0.192     -0.135     +0.028
      +0.131     +0.011     +0.022
      +0.018     +0.018     -0.043
      -0.308     -0.007     -0.037
      -0.027     -0.005     +0.028
      -0.071     -0.071     -0.010
vibration  23
      -0.111     -0.193     -0.007
      +0.107     +0.169     +0.006
      +0.406     +0.062     +0.044
      +0.131     -0.279     +0.025
      -0.310     +0.000     -0.036
      -0.228     +0.212     -0.032
      +0.219     -0.171     +0.034
      +0.507     -0.009     +0.069
      +0.045     +0.025     -0.072
      -0.269     -0.063     -0.037
      -0.047     -0.008     +0.050
      -0.098     -0.089     -0.019
vibration  24
      +0.005     +0.024     -0.004
      -0.008     -0.018     +0.000
      -0.064     -0.007     -0.005
      -0.013     +0.030     -0.002
      +0.019     -0.009     +0.001
      +0.094     -0.080     +0.005
      -0.151     +0.072     +0.017
      -0.138     -0.008     +0.033
      +0.519     +0.030     -0.467
      +0.135     -0.005     -0.030
      -0.315     -0.018     +0.348
      -0.410     -0.050     -0.176
vibration  25
      -0.000     +0.000     -0.000
      -0.000     +0.000     +0.000
      +0.001     -0.003     +0.000
      +0.001     -0.000     +0.000
      +0.000     -0.000     -0.000
      +0.000     +0.001     -0.000
      +0.001     -0.002     -0.000
      -0.004     -0.010     -0.000
      -0.024     -0.009     -0.079
      +0.001     +0.024     -0.003
      -0.001     -0.000     +0.001
      +0.304     +0.107     +0.942
vibration  26
      +0.016     -0.033     +0.003
      -0.007     -0.001     -0.001
      -0.207     +0.382     -0.037
      +0.110     -0.002     +0.013
      -0.013     +0.024     -0.002
      +0.021     +0.073     +0.001
      +0.000     -0.016     +0.000
      -0.289     -0.826     -0.016
      +0.000     +0.000     +0.000
      +0.048     +0.147     +0.003
      -0.000     -0.000     +0.000
      -0.006     -0.002     -0.010
vibration  27
      -0.015     +0.013     -0.002
      +0.031     +0.053     +0.002
      +0.126     -0.223     +0.022
      -0.609     +0.017     -0.070
      +0.286     -0.584     +0.052
      +0.002     +0.015     -0.000
      -0.006     -0.027     -0.000
      -0.053     -0.152     -0.003
      +0.001     +0.000     +0.001
      +0.094     +0.303     +0.007
      -0.000     -0.000     +0.000
      -0.004     -0.002     -0.008
vibration  28
      +0.007     -0.009     +0.001
      -0.014     -0.011     -0.001
      -0.064     +0.116     -0.011
      +0.217     -0.004     +0.025
      -0.061     +0.120     -0.011
      -0.011     -0.018     -0.001
      -0.020     -0.075     -0.001
      +0.086     +0.248     +0.004
      +0.001     -0.000     +0.001
      +0.272     +0.875     +0.020
      +0.000     -0.000     -0.000
      -0.007     -0.007     -0.016
vibration  29
      -0.031     +0.067     -0.006
      -0.001     -0.034     +0.001
      +0.401     -0.721     +0.070
      +0.121     -0.005     +0.014
      -0.164     +0.337     -0.030
      +0.010     +0.030     +0.001
      -0.001     -0.013     -0.000
      -0.125     -0.339     -0.007
      +0.001     +0.000     +0.001
      +0.043     +0.133     +0.003
      -0.000     -0.000     +0.000
      -0.005     -0.002     -0.009
vibration  30
      +0.008     -0.015     +0.001
      +0.084     -0.047     +0.011
      -0.085     +0.160     -0.015
      -0.734     -0.002     -0.083
      -0.265     +0.579     -0.049
      -0.002     -0.002     -0.000
      -0.001     -0.004     -0.000
      +0.009     +0.023     +0.000
      -0.000     +0.000     -0.000
      +0.014     +0.048     +0.001
      +0.000     -0.000     -0.000
      +0.000     -0.000     +0.001
