[Molden Format]
[FR-COORD] # Coordinates in bohr
  C    -1.571123    +1.022999    -0.000001 
  C    -2.810454    -1.133674    -0.000001 
  H    -2.625515    +2.763536    +0.000005 
  H    -4.838407    -1.181573    +0.000002 
  H    -1.877106    -2.932835    +0.000001 
  C    +1.269618    +1.358800    -0.000000 
  C    +2.794641    -1.115793    +0.000001 
  H    +1.789447    +2.475760    -1.644121 
  H    +1.789445    +2.475762    +1.644120 
  H    +2.369037    -2.233756    -1.662375 
  H    +4.802320    -0.708790    -0.000003 
  H    +2.369039    -2.233755    +1.662378 
[FREQ] # Frequencies in cm^-1
  151.1179
  288.0534
  310.9978
  594.8862
  622.1759
  863.0090
  894.5487
 1051.8440
 1109.6893
 1144.2153
 1162.6577
 1240.6942
 1259.5302
 1438.5985
 1474.8094
 1508.1451
 1570.9089
 1615.6050
 1648.6695
 1673.1940
 1679.7562
 1859.2501
 3184.8198
 3201.3546
 3204.8507
 3259.3422
 3265.6111
 3303.2226
 3328.2980
 3395.9440
[FR-NORM-COORD] # Displacements in bohr
vibration  1
      +0.000     +0.000     -0.149
      +0.000     -0.000     +0.108
      -0.000     +0.000     -0.534
      +0.000     -0.000     -0.071
      +0.000     +0.000     +0.502
      -0.000     +0.000     +0.107
      -0.000     -0.000     -0.073
      +0.127     +0.187     +0.276
      -0.127     -0.187     +0.276
      +0.055     +0.174     -0.204
      -0.000     -0.000     +0.049
      -0.055     -0.174     -0.204
vibration  2
      +0.000     +0.000     +0.020
      +0.000     -0.000     +0.027
      -0.000     -0.000     +0.105
      +0.000     -0.000     +0.120
      +0.000     +0.000     -0.068
      +0.000     +0.000     -0.058
      -0.000     -0.000     +0.006
      -0.017     -0.047     -0.095
      +0.017     +0.047     -0.095
      +0.432     +0.216     -0.251
      +0.000     -0.000     +0.592
      -0.432     -0.216     -0.251
vibration  3
      -0.022     -0.066     -0.000
      -0.251     +0.066     +0.000
      +0.108     +0.017     -0.000
      -0.258     +0.305     +0.000
      -0.446     -0.041     +0.000
      -0.005     -0.097     -0.000
      +0.255     +0.056     -0.000
      -0.063     -0.054     +0.008
      -0.063     -0.054     -0.008
      +0.401     +0.000     -0.001
      +0.204     +0.318     +0.000
      +0.401     +0.000     +0.001
vibration  4
      +0.156     -0.181     -0.000
      -0.095     -0.062     +0.000
      +0.117     -0.199     +0.000
      -0.110     +0.379     +0.000
      -0.496     -0.271     -0.000
      +0.120     +0.128     -0.000
      -0.091     +0.093     +0.000
      +0.024     +0.151     -0.013
      +0.024     +0.151     +0.013
      -0.305     +0.158     +0.011
      -0.022     -0.264     -0.000
      -0.305     +0.158     -0.011
vibration  5
      +0.000     -0.000     +0.119
      -0.000     -0.000     -0.034
      -0.000     +0.000     -0.321
      -0.000     +0.000     -0.628
      -0.000     -0.000     +0.394
      +0.000     +0.000     +0.025
      -0.000     +0.000     -0.016
      -0.223     -0.238     -0.214
      +0.223     +0.238     -0.214
      -0.009     +0.089     -0.073
      -0.000     -0.000     -0.004
      +0.009     -0.089     -0.073
vibration  6
      -0.216     +0.049     -0.000
      -0.120     -0.076     +0.000
      -0.324     -0.009     +0.000
      -0.118     -0.386     +0.000
      +0.108     +0.039     -0.000
      +0.185     +0.208     +0.000
      +0.151     -0.126     +0.000
      +0.169     +0.178     -0.020
      +0.169     +0.178     +0.020
      -0.122     -0.042     +0.012
      +0.240     -0.567     -0.000
      -0.122     -0.042     -0.012
vibration  7
      -0.000     +0.000     +0.079
      -0.000     -0.000     +0.001
      -0.000     +0.000     -0.065
      -0.000     -0.000     -0.307
      +0.000     +0.000     +0.144
      +0.000     +0.000     -0.094
      +0.000     -0.000     -0.043
      -0.028     +0.417     +0.192
      +0.028     -0.417     +0.192
      +0.195     -0.369     +0.162
      +0.000     -0.000     +0.201
      -0.195     +0.369     +0.162
vibration  8
      +0.058     -0.008     +0.000
      +0.107     +0.021     -0.000
      -0.202     -0.163     +0.000
      +0.093     +0.536     +0.000
      -0.308     -0.183     +0.000
      -0.206     +0.175     -0.000
      +0.098     -0.195     -0.000
      -0.280     +0.210     -0.002
      -0.280     +0.210     +0.002
      +0.107     -0.197     -0.003
      +0.087     -0.138     +0.000
      +0.107     -0.197     +0.003
vibration  9
      +0.000     -0.000     -0.018
      +0.000     +0.000     +0.151
      +0.000     +0.000     -0.245
      -0.000     -0.000     -0.524
      -0.000     -0.000     -0.797
      -0.000     +0.000     -0.005
      +0.000     -0.000     +0.008
      +0.034     -0.007     +0.001
      -0.034     +0.007     +0.001
      -0.015     +0.033     -0.012
      +0.000     -0.000     -0.035
      +0.015     -0.033     -0.012
vibration  10
      -0.045     +0.031     -0.000
      +0.022     -0.047     +0.000
      -0.330     -0.139     +0.000
      +0.007     +0.226     -0.000
      -0.251     -0.187     +0.000
      +0.069     +0.049     -0.000
      -0.086     -0.034     +0.000
      +0.338     -0.093     -0.010
      +0.338     -0.093     +0.010
      +0.277     -0.096     -0.045
      -0.183     +0.496     -0.000
      +0.277     -0.096     +0.045
vibration  11
      -0.000     -0.000     +0.073
      -0.000     -0.000     -0.050
      -0.000     +0.000     -0.745
      +0.000     +0.000     +0.522
      -0.000     -0.000     -0.280
      +0.000     +0.000     +0.036
      -0.000     -0.000     -0.023
      -0.166     -0.001     -0.018
      +0.166     +0.001     -0.018
      +0.047     -0.097     +0.033
      -0.000     +0.000     +0.051
      -0.047     +0.097     +0.033
vibration  12
      -0.000     +0.000     -0.126
      +0.000     -0.000     +0.035
      -0.000     -0.000     +0.295
      +0.000     +0.000     -0.031
      -0.000     -0.000     -0.065
      -0.000     -0.000     +0.161
      +0.000     +0.000     -0.108
      -0.411     -0.184     -0.104
      +0.411     +0.184     -0.104
      +0.171     -0.381     +0.118
      +0.000     -0.000     +0.222
      -0.171     +0.381     +0.118
vibration  13
      +0.112     -0.076     -0.000
      -0.112     +0.025     +0.000
      +0.372     +0.084     +0.000
      -0.093     -0.484     -0.000
      +0.340     +0.247     +0.000
      -0.005     +0.131     +0.000
      -0.070     -0.095     -0.000
      -0.048     +0.133     -0.015
      -0.048     +0.133     +0.015
      +0.265     -0.140     -0.052
      -0.152     +0.352     +0.000
      +0.265     -0.140     +0.052
vibration  14
      +0.000     -0.000     +0.049
      -0.000     +0.000     -0.006
      -0.000     -0.000     -0.067
      -0.000     +0.000     -0.019
      +0.000     +0.000     +0.016
      -0.000     -0.000     +0.035
      +0.000     +0.000     -0.090
      +0.557     -0.330     -0.009
      -0.557     +0.330     -0.009
      +0.076     -0.234     +0.051
      +0.000     -0.000     +0.133
      -0.076     +0.234     +0.051
vibration  15
      -0.057     +0.083     +0.000
      +0.031     -0.113     -0.000
      +0.669     +0.529     +0.000
      +0.013     +0.010     +0.000
      -0.329     -0.309     +0.000
      +0.018     +0.009     +0.000
      -0.013     -0.014     -0.000
      -0.090     +0.097     +0.018
      -0.090     +0.097     -0.018
      +0.052     -0.024     -0.010
      -0.022     +0.043     +0.000
      +0.052     -0.024     +0.010
vibration  16
      +0.051     +0.007     -0.000
      -0.028     -0.030     -0.000
      +0.206     +0.099     -0.000
      -0.028     -0.159     +0.000
      -0.053     -0.050     +0.000
      -0.171     +0.064     +0.000
      +0.061     +0.016     -0.000
      +0.575     -0.268     +0.012
      +0.575     -0.268     -0.012
      -0.159     +0.024     +0.047
      +0.076     -0.089     -0.000
      -0.159     +0.024     -0.047
vibration  17
      +0.014     +0.017     -0.000
      -0.001     +0.003     -0.000
      -0.049     -0.017     +0.000
      -0.001     -0.115     +0.000
      -0.085     -0.046     +0.000
      +0.012     -0.011     -0.000
      +0.065     -0.109     +0.000
      -0.054     +0.024     +0.001
      -0.054     +0.024     -0.001
      -0.364     +0.376     -0.192
      -0.092     +0.566     -0.000
      -0.364     +0.376     +0.192
vibration  18
      +0.086     +0.078     +0.000
      -0.005     +0.029     -0.000
      -0.270     -0.131     -0.000
      -0.005     -0.664     +0.000
      -0.507     -0.255     +0.000
      -0.008     -0.041     -0.000
      -0.001     +0.024     +0.000
      -0.041     +0.148     +0.109
      -0.041     +0.148     -0.109
      +0.001     -0.137     +0.103
      +0.008     -0.033     -0.000
      +0.001     -0.137     -0.103
vibration  19
      -0.011     -0.013     +0.000
      -0.010     -0.016     +0.000
      +0.015     -0.002     -0.000
      -0.010     +0.173     -0.000
      +0.160     +0.077     -0.000
      -0.027     -0.067     +0.000
      -0.001     -0.006     +0.000
      +0.240     +0.478     +0.423
      +0.240     +0.478     -0.423
      -0.022     -0.003     +0.003
      -0.013     +0.033     -0.000
      -0.022     -0.003     -0.003
vibration  20
      -0.000     -0.000     -0.000
      -0.000     -0.000     -0.001
      +0.000     +0.000     -0.001
      +0.000     +0.000     +0.001
      +0.000     +0.000     +0.016
      +0.000     +0.000     +0.017
      +0.000     +0.000     +0.052
      +0.021     -0.035     +0.003
      -0.021     +0.035     +0.003
      +0.488     -0.060     -0.060
      -0.000     +0.000     -0.708
      -0.488     +0.060     -0.060
vibration  21
      +0.016     +0.012     -0.000
      +0.000     +0.005     -0.000
      -0.039     -0.020     -0.000
      -0.000     -0.103     +0.000
      -0.087     -0.043     +0.000
      -0.028     -0.013     +0.000
      -0.045     -0.026     +0.000
      +0.044     +0.003     +0.034
      +0.044     +0.003     -0.034
      +0.326     +0.403     -0.369
      +0.056     -0.395     -0.000
      +0.326     +0.403     +0.369
vibration  22
      -0.232     -0.294     -0.000
      +0.182     +0.290     -0.000
      +0.399     +0.026     +0.000
      +0.241     -0.398     -0.000
      -0.533     -0.031     +0.000
      +0.018     +0.032     +0.000
      -0.006     -0.006     +0.000
      +0.181     +0.045     +0.061
      +0.181     +0.045     -0.061
      -0.002     +0.000     -0.005
      -0.015     +0.053     -0.000
      -0.002     +0.000     +0.005
vibration  23
      +0.003     -0.004     +0.000
      +0.000     +0.000     +0.000
      -0.029     +0.058     +0.000
      -0.006     +0.001     +0.000
      +0.004     -0.008     +0.000
      +0.028     +0.061     +0.000
      -0.011     -0.002     -0.000
      -0.171     -0.359     +0.572
      -0.171     -0.359     -0.572
      -0.005     -0.007     -0.008
      +0.136     +0.034     -0.000
      -0.005     -0.007     +0.008
vibration  24
      -0.000     +0.002     +0.000
      +0.000     -0.002     +0.000
      +0.006     -0.016     -0.000
      +0.004     -0.002     +0.000
      -0.009     +0.017     -0.000
      -0.002     -0.006     +0.000
      -0.025     +0.041     -0.000
      +0.015     +0.034     -0.052
      +0.015     +0.034     +0.052
      -0.131     -0.304     -0.473
      +0.552     +0.128     -0.000
      -0.131     -0.304     +0.473
vibration  25
      -0.000     +0.000     +0.001
      -0.000     +0.000     +0.000
      +0.000     -0.000     -0.001
      +0.000     +0.000     +0.001
      +0.000     -0.000     +0.000
      -0.000     -0.000     +0.090
      +0.000     -0.000     -0.020
      +0.181     +0.379     -0.544
      -0.181     -0.379     -0.544
      +0.037     +0.082     +0.124
      -0.000     -0.000     -0.007
      -0.037     -0.082     +0.124
vibration  26
      +0.001     -0.001     -0.000
      +0.001     -0.002     -0.000
      -0.011     +0.018     +0.000
      +0.001     -0.002     -0.000
      -0.012     +0.020     -0.000
      +0.004     +0.007     -0.000
      +0.078     +0.049     -0.000
      -0.018     -0.041     +0.062
      -0.018     -0.041     -0.062
      -0.069     -0.210     -0.339
      -0.790     -0.162     +0.000
      -0.069     -0.210     +0.339
vibration  27
      +0.000     +0.000     -0.000
      +0.000     -0.000     -0.000
      +0.000     -0.000     +0.000
      +0.000     -0.000     +0.000
      -0.000     +0.000     +0.001
      -0.000     -0.000     +0.021
      +0.000     +0.000     +0.090
      +0.037     +0.086     -0.121
      -0.037     -0.086     -0.121
      -0.154     -0.380     -0.551
      +0.000     +0.000     +0.025
      +0.154     +0.380     -0.551
vibration  28
      -0.038     +0.066     +0.000
      +0.023     +0.012     -0.000
      +0.467     -0.776     -0.000
      -0.373     -0.003     +0.000
      +0.084     -0.150     +0.000
      +0.002     +0.004     +0.000
      +0.002     +0.000     +0.000
      -0.013     -0.022     +0.034
      -0.013     -0.022     -0.034
      -0.000     -0.002     -0.003
      -0.017     -0.003     +0.000
      -0.000     -0.002     +0.003
vibration  29
      +0.011     -0.036     -0.000
      +0.036     +0.057     -0.000
      -0.192     +0.322     +0.000
      -0.667     -0.007     +0.000
      +0.305     -0.560     +0.000
      -0.002     -0.002     +0.000
      +0.000     +0.001     +0.000
      +0.010     +0.014     -0.019
      +0.010     +0.014     +0.019
      -0.004     -0.008     -0.013
      +0.002     -0.001     +0.000
      -0.004     -0.008     +0.013
vibration  30
      -0.007     +0.010     +0.000
      -0.081     +0.054     +0.000
      +0.062     -0.108     -0.000
      +0.641     +0.025     -0.000
      +0.340     -0.669     +0.000
      +0.001     +0.001     -0.000
      +0.001     +0.001     +0.000
      -0.001     -0.002     +0.004
      -0.001     -0.002     -0.004
      -0.003     -0.008     -0.012
      -0.009     -0.003     +0.000
      -0.003     -0.008     +0.012
