[Molden Format]
[FR-COORD] # Coordinates in bohr
  C    +1.517920    +0.936231    -0.371446 
  C    +2.978098    -1.005438    +0.164255 
  H    +2.272191    +2.466852    -1.476049 
  H    +4.898198    -1.106003    -0.481826 
  H    +2.319659    -2.578248    +1.268839 
  C    -1.208711    +1.220257    +0.494830 
  C    -2.960720    -1.020366    -0.296441 
  H    -1.229264    +1.410495    +2.535862 
  H    -1.962069    +2.967109    -0.257365 
  H    -1.909023    -2.425461    -1.342981 
  H    -3.785287    -1.928988    +1.342336 
  H    -4.493009    -0.361784    -1.484012 
[FREQ] # Frequencies in cm^-1
 -253.6912
 -113.1482
  316.6598
  513.7262
  721.6443
  874.6318
  920.4706
 1032.8254
 1108.9124
 1149.2231
 1169.0215
 1205.7755
 1280.2165
 1409.0625
 1475.8219
 1495.5354
 1577.8227
 1612.2800
 1661.3068
 1680.3456
 1684.8525
 1852.5353
 3205.6242
 3216.6020
 3241.9046
 3267.9599
 3283.9873
 3306.2055
 3322.4823
 3383.4995
[FR-NORM-COORD] # Displacements in bohr
vibration  1
      +0.014     +0.005     +0.033
      -0.018     -0.024     +0.011
      +0.065     +0.032     +0.104
      -0.001     -0.016     +0.059
      -0.060     -0.055     -0.058
      -0.011     +0.031     -0.056
      +0.015     -0.014     +0.016
      -0.082     +0.159     -0.068
      +0.013     -0.016     -0.188
      -0.091     +0.236     -0.428
      +0.466     -0.333     +0.065
      -0.313     +0.023     +0.460
vibration  2
      -0.032     -0.064     -0.099
      +0.065     +0.061     +0.091
      -0.182     -0.233     -0.434
      +0.008     -0.007     -0.067
      +0.197     +0.231     +0.413
      +0.024     -0.049     +0.069
      -0.055     +0.052     -0.061
      +0.118     -0.241     +0.085
      +0.031     +0.035     +0.257
      -0.137     +0.173     -0.307
      +0.083     -0.140     -0.097
      -0.154     +0.193     +0.146
vibration  3
      +0.045     -0.056     +0.069
      +0.216     +0.045     -0.014
      +0.045     +0.093     +0.270
      +0.267     +0.356     +0.085
      +0.352     -0.152     -0.216
      -0.025     -0.071     -0.083
      -0.220     +0.039     +0.027
      -0.095     +0.067     -0.094
      +0.087     -0.072     -0.199
      -0.388     -0.088     +0.023
      -0.244     +0.161     +0.082
      -0.206     +0.150     +0.069
vibration  4
      -0.082     -0.103     +0.111
      +0.074     -0.041     -0.050
      -0.186     -0.238     -0.152
      -0.060     +0.079     -0.479
      +0.444     -0.048     +0.157
      -0.083     +0.103     +0.038
      +0.066     +0.030     -0.025
      -0.289     +0.322     +0.014
      +0.041     +0.031     -0.256
      +0.225     +0.113     +0.028
      +0.038     -0.044     -0.081
      +0.092     -0.073     -0.117
vibration  5
      -0.140     -0.140     -0.105
      +0.002     +0.001     +0.030
      +0.009     +0.042     +0.248
      +0.191     +0.500     +0.509
      +0.072     -0.267     -0.314
      -0.028     +0.023     +0.001
      +0.095     +0.081     +0.024
      +0.183     -0.076     +0.012
      -0.005     +0.091     +0.142
      +0.188     +0.146     +0.030
      +0.123     +0.001     -0.008
      +0.081     -0.021     -0.012
vibration  6
      +0.126     +0.004     -0.071
      +0.100     -0.069     +0.002
      +0.257     -0.025     -0.034
      +0.152     -0.145     +0.152
      -0.002     -0.056     -0.036
      -0.146     +0.196     +0.048
      -0.114     -0.076     -0.026
      +0.043     -0.204     +0.087
      -0.162     +0.334     +0.384
      +0.249     +0.094     +0.111
      +0.085     -0.184     +0.018
      -0.211     -0.473     -0.119
vibration  7
      -0.035     +0.008     +0.087
      -0.031     -0.004     +0.016
      +0.030     -0.072     +0.023
      -0.124     +0.096     -0.282
      +0.202     -0.064     +0.064
      +0.017     -0.001     -0.130
      +0.027     +0.033     -0.021
      +0.076     -0.510     -0.079
      +0.022     +0.202     +0.348
      -0.057     -0.151     +0.141
      +0.288     +0.296     +0.258
      -0.177     -0.225     +0.104
vibration  8
      -0.078     -0.017     +0.026
      -0.106     +0.023     +0.024
      +0.124     -0.138     -0.001
      -0.113     +0.516     -0.074
      +0.257     -0.189     -0.081
      +0.264     +0.186     +0.048
      -0.123     -0.208     -0.069
      +0.329     +0.218     +0.047
      +0.264     +0.161     -0.011
      -0.142     -0.193     -0.114
      -0.159     -0.157     -0.057
      -0.061     -0.026     -0.052
vibration  9
      -0.003     -0.006     -0.016
      +0.043     +0.064     +0.125
      -0.069     -0.135     -0.240
      -0.147     -0.205     -0.400
      -0.227     -0.389     -0.682
      -0.007     +0.002     -0.003
      +0.003     +0.000     +0.009
      +0.043     +0.008     -0.005
      -0.029     -0.004     +0.006
      +0.002     +0.018     -0.018
      -0.027     -0.030     -0.024
      +0.026     +0.021     -0.011
vibration  10
      +0.009     +0.021     +0.069
      +0.007     -0.010     -0.058
      -0.320     -0.254     -0.534
      +0.188     +0.094     +0.471
      -0.205     -0.028     -0.205
      +0.015     +0.010     +0.036
      +0.011     -0.002     -0.044
      -0.217     -0.014     +0.033
      +0.115     +0.023     -0.035
      -0.093     -0.150     +0.053
      +0.127     +0.185     +0.122
      -0.104     -0.082     +0.063
vibration  11
      +0.065     +0.057     +0.002
      -0.041     -0.058     +0.009
      +0.255     -0.229     -0.273
      -0.002     +0.327     +0.038
      +0.289     -0.198     -0.005
      -0.080     +0.024     -0.023
      +0.066     -0.031     +0.036
      +0.033     -0.068     -0.013
      -0.419     -0.070     +0.099
      -0.244     -0.101     -0.173
      -0.211     +0.026     -0.073
      +0.185     +0.396     +0.111
vibration  12
      +0.038     +0.052     +0.072
      -0.052     -0.012     -0.019
      -0.045     -0.184     -0.309
      -0.008     +0.227     +0.074
      +0.085     -0.062     -0.016
      +0.028     -0.079     -0.083
      -0.079     +0.057     +0.085
      +0.229     -0.040     -0.084
      +0.095     -0.009     +0.017
      +0.431     +0.446     +0.065
      -0.074     -0.411     -0.178
      +0.068     -0.181     -0.233
vibration  13
      -0.079     -0.041     +0.091
      +0.084     +0.009     -0.045
      -0.344     +0.044     +0.031
      +0.121     -0.351     +0.143
      -0.263     +0.191     +0.030
      -0.001     +0.094     -0.119
      +0.028     -0.073     +0.073
      +0.254     -0.197     -0.085
      -0.015     +0.229     +0.215
      -0.090     +0.041     -0.198
      -0.284     -0.162     -0.140
      +0.243     +0.332     +0.012
vibration  14
      -0.019     +0.017     +0.044
      +0.024     -0.027     -0.002
      -0.173     +0.044     -0.023
      +0.036     -0.106     +0.037
      +0.038     -0.022     +0.025
      -0.015     -0.014     +0.011
      -0.008     +0.021     -0.065
      +0.730     +0.355     -0.010
      -0.421     -0.198     -0.006
      -0.002     -0.062     +0.055
      +0.127     +0.121     +0.059
      -0.120     -0.103     +0.012
vibration  15
      -0.019     -0.059     +0.054
      +0.004     +0.093     -0.054
      +0.678     -0.454     -0.016
      -0.004     +0.032     -0.025
      -0.315     +0.259     -0.019
      -0.067     -0.032     +0.015
      +0.014     -0.004     -0.013
      +0.268     +0.108     +0.007
      +0.214     +0.073     -0.018
      -0.023     -0.039     +0.000
      +0.007     +0.043     +0.009
      -0.012     +0.014     +0.033
vibration  16
      +0.057     +0.036     -0.023
      -0.032     -0.028     +0.024
      -0.260     +0.188     -0.032
      -0.043     +0.089     -0.044
      +0.140     -0.099     +0.022
      -0.126     -0.040     +0.008
      +0.036     -0.034     -0.009
      +0.344     +0.191     -0.004
      +0.721     +0.340     +0.018
      -0.066     -0.083     -0.043
      -0.068     +0.072     -0.002
      +0.004     +0.075     +0.090
vibration  17
      +0.025     -0.023     +0.006
      -0.004     -0.001     +0.001
      -0.077     +0.026     +0.012
      -0.025     +0.143     -0.070
      -0.121     +0.068     +0.019
      +0.005     +0.016     +0.002
      +0.068     +0.086     +0.031
      +0.034     -0.009     +0.005
      -0.027     -0.000     -0.003
      -0.482     -0.293     -0.057
      -0.254     -0.343     -0.339
      -0.175     -0.530     -0.040
vibration  18
      -0.091     +0.072     -0.006
      -0.003     +0.026     -0.014
      +0.261     -0.111     -0.034
      +0.088     -0.604     +0.302
      +0.536     -0.249     -0.053
      +0.011     -0.016     +0.003
      +0.014     +0.022     +0.008
      -0.013     +0.013     -0.002
      +0.146     +0.031     -0.022
      -0.116     -0.093     +0.021
      -0.046     -0.125     -0.096
      -0.037     -0.109     -0.006
vibration  19
      +0.004     +0.002     +0.004
      -0.006     +0.005     -0.001
      -0.018     +0.009     -0.000
      -0.004     -0.015     +0.009
      +0.023     -0.011     -0.004
      -0.014     +0.045     +0.028
      +0.024     -0.008     -0.015
      +0.211     -0.514     +0.057
      +0.055     -0.192     -0.527
      +0.220     +0.105     +0.062
      -0.333     +0.133     -0.102
      -0.250     -0.023     +0.317
vibration  20
      +0.003     -0.004     +0.001
      +0.002     -0.002     +0.001
      -0.015     +0.004     +0.002
      -0.003     +0.028     -0.015
      -0.033     +0.011     -0.000
      +0.001     +0.003     -0.018
      -0.009     +0.025     -0.047
      -0.043     +0.045     -0.020
      -0.013     +0.044     +0.081
      +0.160     -0.333     +0.606
      +0.097     -0.424     -0.209
      -0.107     +0.369     +0.313
vibration  21
      +0.009     -0.001     +0.002
      -0.006     +0.002     -0.000
      -0.029     +0.018     -0.001
      -0.006     +0.007     -0.001
      +0.009     -0.002     +0.004
      -0.034     +0.039     +0.028
      -0.038     +0.022     +0.016
      +0.193     -0.357     +0.050
      +0.083     -0.107     -0.386
      -0.249     -0.182     +0.036
      +0.479     -0.243     +0.116
      +0.327     +0.130     -0.368
vibration  22
      -0.255     +0.265     -0.051
      +0.211     -0.264     +0.069
      +0.366     -0.019     -0.125
      +0.178     +0.360     -0.263
      -0.507     +0.038     +0.160
      +0.022     -0.030     +0.009
      +0.001     +0.006     +0.003
      +0.008     -0.031     +0.006
      +0.243     +0.009     -0.116
      -0.025     -0.013     +0.003
      -0.008     -0.029     -0.019
      -0.007     -0.037     -0.009
vibration  23
      +0.000     +0.001     -0.001
      +0.000     +0.000     +0.000
      -0.004     -0.008     +0.004
      -0.003     -0.000     +0.001
      +0.001     +0.001     -0.002
      +0.009     -0.021     -0.033
      -0.034     -0.023     -0.000
      -0.002     +0.032     +0.514
      -0.099     +0.225     -0.114
      -0.175     +0.210     +0.162
      +0.211     +0.237     -0.456
      +0.363     -0.176     +0.293
vibration  24
      -0.000     -0.002     +0.001
      -0.000     +0.001     -0.001
      +0.007     +0.019     -0.010
      +0.008     +0.001     -0.004
      -0.006     -0.012     +0.010
      -0.008     +0.024     +0.052
      -0.021     -0.017     -0.015
      +0.005     -0.049     -0.742
      +0.100     -0.225     +0.119
      -0.179     +0.216     +0.161
      +0.106     +0.121     -0.235
      +0.313     -0.150     +0.246
vibration  25
      -0.002     -0.007     +0.004
      +0.001     +0.000     -0.000
      +0.038     +0.084     -0.060
      -0.014     +0.001     +0.005
      +0.001     +0.001     -0.002
      -0.024     +0.054     -0.046
      +0.012     -0.028     +0.038
      -0.010     +0.035     +0.263
      +0.295     -0.672     +0.299
      -0.044     +0.052     +0.058
      +0.162     +0.165     -0.317
      -0.260     +0.115     -0.194
vibration  26
      +0.003     +0.007     -0.004
      -0.001     +0.001     -0.000
      -0.037     -0.079     +0.057
      +0.022     -0.000     -0.008
      -0.008     -0.016     +0.012
      +0.013     -0.029     +0.037
      +0.014     -0.034     +0.069
      +0.005     -0.030     -0.281
      -0.162     +0.374     -0.163
      +0.029     -0.042     -0.003
      +0.247     +0.256     -0.484
      -0.443     +0.196     -0.329
vibration  27
      -0.001     -0.002     +0.001
      +0.001     -0.003     +0.001
      +0.012     +0.024     -0.018
      -0.017     -0.000     +0.006
      +0.012     +0.027     -0.018
      -0.003     +0.008     +0.001
      -0.066     +0.047     +0.041
      -0.002     -0.002     -0.049
      +0.036     -0.086     +0.039
      +0.466     -0.604     -0.453
      +0.103     +0.145     -0.241
      +0.224     -0.100     +0.200
vibration  28
      +0.015     +0.018     -0.015
      -0.033     +0.051     -0.016
      -0.131     -0.271     +0.195
      +0.581     -0.020     -0.201
      -0.231     -0.533     +0.376
      -0.002     +0.005     -0.005
      -0.003     +0.003     -0.000
      -0.003     +0.004     +0.036
      +0.026     -0.060     +0.027
      +0.019     -0.024     -0.020
      -0.005     -0.003     +0.008
      +0.024     -0.011     +0.019
vibration  29
      -0.022     -0.063     +0.042
      +0.000     +0.033     -0.018
      +0.324     +0.675     -0.484
      +0.066     +0.000     -0.024
      -0.136     -0.324     +0.227
      +0.005     -0.009     +0.005
      +0.001     -0.000     +0.002
      +0.001     -0.004     -0.022
      -0.052     +0.107     -0.046
      +0.004     -0.004     -0.003
      +0.002     +0.002     -0.004
      -0.021     +0.008     -0.015
vibration  30
      +0.006     +0.016     -0.011
      +0.078     +0.032     -0.046
      -0.074     -0.160     +0.114
      -0.741     +0.046     +0.246
      -0.177     -0.452     +0.313
      -0.001     +0.001     -0.001
      -0.001     +0.001     -0.000
      -0.002     +0.002     +0.004
      +0.009     -0.017     +0.007
      +0.004     -0.006     -0.006
      -0.001     -0.001     +0.002
      +0.006     -0.003     +0.004
