[Molden Format]
[FR-COORD] # Coordinates in bohr
  C    -2.956617    -1.124957    +0.373028 
  C    -0.831425    +0.152832    +0.405632 
  H    -4.747618    -0.178858    +0.356243 
  O    -0.805743    +2.808251    +0.383254 
  C    +1.704609    -1.071946    +0.390753 
  H    -2.951064    -3.147766    +0.327224 
  C    +3.075490    -1.328694    -1.665746 
  H    +2.417126    -1.715153    +2.183291 
  H    +4.912269    -2.187739    -1.618585 
  H    +2.414433    -0.688847    -3.473197 
  H    -1.069667    +3.508296    +2.052260 
[FREQ] # Frequencies in cm^-1
 -369.1425
 -148.0020
  296.5749
  347.6775
  478.6684
  697.1786
  774.4952
  827.7628
  860.4470
 1036.9570
 1106.0730
 1121.6710
 1159.8048
 1198.2099
 1303.5824
 1416.0465
 1467.0808
 1581.9967
 1614.3442
 1839.6970
 1881.9976
 3309.5541
 3325.6435
 3341.3416
 3398.1760
 3424.6283
 3844.9559
[FR-NORM-COORD] # Displacements in bohr
vibration  1
      -0.004     -0.004     +0.013
      -0.006     +0.004     -0.008
      -0.020     -0.029     +0.009
      +0.078     -0.003     +0.023
      -0.004     +0.013     -0.015
      +0.009     -0.004     +0.047
      -0.007     -0.010     -0.011
      +0.004     +0.062     -0.001
      +0.001     +0.008     +0.002
      -0.011     -0.042     -0.021
      -0.979     +0.013     -0.155
vibration  2
      -0.056     +0.024     +0.119
      -0.019     -0.033     +0.009
      -0.034     +0.065     +0.128
      +0.061     -0.037     -0.109
      -0.068     -0.139     -0.026
      -0.110     +0.021     +0.199
      +0.075     +0.180     +0.029
      -0.260     -0.561     -0.102
      +0.018     +0.056     +0.003
      +0.254     +0.572     +0.102
      -0.021     +0.044     -0.157
vibration  3
      +0.012     -0.027     -0.117
      +0.027     -0.063     +0.133
      +0.031     +0.003     -0.393
      +0.130     -0.069     -0.089
      +0.033     -0.004     +0.171
      -0.011     -0.028     -0.058
      -0.216     +0.136     -0.009
      +0.226     +0.082     +0.120
      -0.133     +0.301     -0.324
      -0.560     +0.131     +0.114
      +0.094     +0.108     -0.169
vibration  4
      +0.156     -0.048     -0.044
      +0.062     +0.101     +0.057
      +0.066     -0.221     -0.128
      -0.089     +0.100     -0.010
      -0.009     -0.068     +0.037
      +0.347     -0.048     -0.049
      -0.077     -0.057     -0.008
      -0.174     -0.494     -0.053
      -0.249     -0.433     -0.161
      +0.023     +0.336     +0.094
      -0.180     +0.134     -0.038
vibration  5
      -0.036     +0.180     -0.018
      +0.102     -0.066     +0.094
      +0.172     +0.576     -0.176
      -0.192     -0.051     -0.019
      +0.162     -0.070     +0.037
      -0.454     +0.183     +0.015
      +0.059     -0.026     -0.053
      +0.230     -0.137     -0.016
      +0.055     -0.045     -0.202
      -0.047     +0.042     +0.010
      -0.326     -0.023     -0.053
vibration  6
      -0.082     -0.046     -0.044
      -0.094     +0.014     +0.345
      -0.140     -0.159     -0.252
      +0.029     +0.022     -0.035
      -0.006     +0.033     -0.108
      +0.038     -0.042     -0.311
      +0.094     -0.032     -0.068
      +0.174     -0.020     -0.192
      +0.070     -0.081     +0.251
      +0.374     -0.150     -0.209
      +0.064     +0.472     -0.221
vibration  7
      +0.023     +0.007     +0.002
      +0.001     +0.032     +0.008
      -0.054     -0.145     -0.161
      -0.034     +0.124     +0.005
      -0.043     -0.246     -0.013
      +0.183     +0.002     +0.164
      +0.031     +0.005     -0.008
      +0.167     +0.148     +0.046
      +0.351     +0.690     +0.016
      -0.214     -0.323     -0.036
      -0.041     +0.048     +0.040
vibration  8
      +0.032     +0.018     -0.003
      +0.027     -0.000     +0.012
      +0.032     +0.031     +0.662
      -0.014     -0.015     -0.026
      -0.021     -0.034     +0.008
      +0.014     +0.036     -0.698
      -0.013     +0.007     +0.022
      -0.023     +0.055     +0.041
      +0.037     +0.116     -0.003
      -0.088     -0.041     +0.033
      -0.045     +0.149     -0.101
vibration  9
      +0.201     +0.090     +0.004
      +0.133     +0.017     +0.062
      +0.306     +0.271     -0.277
      -0.036     -0.158     +0.002
      -0.231     +0.028     -0.107
      +0.091     +0.095     +0.143
      -0.094     +0.041     +0.032
      -0.127     +0.129     -0.113
      -0.024     +0.219     +0.555
      +0.231     -0.227     -0.176
      -0.014     -0.064     -0.043
vibration  10
      -0.030     +0.163     -0.005
      -0.063     +0.159     -0.010
      -0.343     -0.453     -0.015
      -0.022     -0.203     +0.018
      +0.044     -0.021     +0.016
      +0.653     +0.161     +0.082
      +0.055     -0.017     -0.010
      -0.008     +0.022     +0.055
      +0.072     +0.003     -0.248
      -0.132     +0.021     +0.066
      +0.033     +0.084     -0.112
vibration  11
      -0.003     -0.001     +0.166
      -0.003     +0.003     -0.047
      +0.010     +0.007     -0.685
      +0.003     +0.002     -0.005
      +0.000     +0.009     -0.002
      +0.041     +0.018     -0.682
      +0.010     -0.006     +0.004
      -0.092     -0.013     +0.025
      +0.023     +0.020     -0.077
      -0.069     -0.006     +0.031
      -0.013     -0.104     +0.038
vibration  12
      -0.000     -0.003     -0.008
      -0.000     +0.002     +0.004
      +0.002     +0.003     +0.028
      +0.002     +0.001     +0.001
      +0.016     +0.037     +0.006
      -0.015     -0.004     +0.025
      +0.035     +0.073     +0.013
      -0.264     -0.546     -0.092
      -0.034     -0.077     -0.024
      -0.326     -0.695     -0.127
      -0.007     -0.003     +0.001
vibration  13
      -0.003     -0.007     -0.007
      -0.007     +0.009     +0.002
      +0.009     +0.019     +0.028
      +0.004     -0.010     +0.003
      +0.046     +0.104     +0.015
      -0.036     -0.008     +0.022
      -0.051     -0.133     -0.023
      -0.267     -0.477     -0.070
      +0.331     +0.693     +0.087
      +0.073     +0.228     +0.058
      +0.007     +0.028     -0.014
vibration  14
      +0.042     -0.053     -0.012
      -0.020     +0.032     +0.030
      +0.183     +0.221     -0.063
      +0.002     -0.022     +0.024
      -0.069     +0.018     -0.064
      -0.221     -0.051     +0.121
      +0.097     -0.039     +0.030
      -0.397     +0.229     +0.144
      +0.119     -0.003     -0.503
      -0.357     +0.104     +0.232
      +0.045     +0.332     -0.127
vibration  15
      +0.015     -0.063     +0.025
      -0.044     +0.092     -0.117
      +0.132     +0.174     -0.096
      -0.006     -0.049     +0.066
      +0.055     -0.051     +0.052
      -0.243     -0.057     +0.015
      -0.044     +0.029     -0.022
      +0.234     -0.098     -0.035
      -0.056     +0.003     +0.219
      +0.175     -0.081     -0.135
      +0.074     +0.757     -0.287
vibration  16
      -0.062     +0.080     +0.008
      +0.145     -0.221     -0.045
      -0.258     -0.324     -0.097
      -0.023     +0.047     +0.049
      +0.002     +0.029     -0.030
      +0.280     +0.064     +0.074
      -0.023     +0.008     +0.000
      -0.349     +0.097     +0.126
      -0.052     -0.033     +0.106
      -0.035     +0.037     +0.019
      +0.046     +0.655     -0.211
vibration  17
      -0.011     +0.008     +0.004
      +0.018     -0.024     -0.026
      -0.031     -0.035     -0.019
      -0.003     +0.004     +0.009
      -0.040     +0.042     -0.092
      +0.033     +0.007     +0.003
      +0.012     -0.028     +0.119
      +0.653     -0.237     -0.475
      +0.006     -0.008     +0.009
      -0.365     +0.113     +0.316
      +0.002     +0.110     -0.038
vibration  18
      -0.009     +0.002     -0.001
      -0.089     -0.082     -0.013
      +0.296     +0.546     +0.030
      +0.004     +0.019     +0.005
      -0.024     +0.015     +0.035
      +0.699     +0.017     +0.016
      +0.008     -0.005     -0.001
      +0.100     -0.062     -0.037
      +0.028     +0.010     -0.221
      +0.165     -0.050     -0.082
      -0.006     +0.074     -0.019
vibration  19
      +0.013     +0.016     +0.003
      +0.048     -0.015     -0.015
      -0.119     -0.235     -0.004
      -0.003     +0.001     +0.004
      -0.096     +0.034     +0.063
      -0.225     +0.011     -0.010
      +0.001     -0.007     +0.030
      +0.218     -0.087     -0.100
      +0.081     +0.090     -0.672
      +0.493     -0.182     -0.228
      +0.002     +0.046     -0.015
vibration  20
      -0.173     -0.100     -0.008
      +0.147     +0.128     +0.031
      -0.004     +0.292     -0.008
      -0.005     -0.017     -0.007
      +0.191     -0.059     -0.228
      +0.254     -0.131     +0.014
      -0.180     +0.039     +0.248
      -0.294     +0.158     -0.007
      -0.148     +0.164     -0.390
      +0.445     -0.220     -0.023
      -0.003     -0.081     +0.019
vibration  21
      +0.309     +0.176     +0.004
      -0.373     -0.188     +0.007
      +0.066     -0.417     -0.038
      +0.010     +0.030     +0.002
      +0.205     -0.043     -0.167
      -0.393     +0.238     +0.017
      -0.123     +0.024     +0.172
      -0.188     +0.066     -0.010
      -0.133     +0.054     -0.203
      +0.270     -0.106     +0.024
      +0.017     +0.057     -0.005
vibration  22
      -0.002     -0.001     -0.000
      +0.001     -0.000     -0.000
      +0.021     -0.012     -0.001
      -0.000     +0.000     -0.000
      -0.024     +0.021     -0.058
      -0.001     +0.019     +0.000
      +0.028     -0.009     -0.024
      +0.279     -0.254     +0.707
      -0.447     +0.210     -0.017
      +0.111     -0.104     +0.289
      -0.001     +0.000     -0.000
vibration  23
      +0.004     +0.001     +0.000
      -0.001     +0.000     -0.000
      -0.036     +0.020     +0.001
      +0.000     -0.000     +0.000
      +0.010     -0.014     +0.050
      +0.001     -0.037     -0.001
      +0.030     -0.004     -0.054
      -0.194     +0.178     -0.496
      -0.482     +0.227     -0.019
      +0.208     -0.199     +0.554
      +0.001     -0.000     -0.000
vibration  24
      -0.064     -0.030     -0.002
      +0.009     +0.006     +0.000
      +0.669     -0.356     +0.007
      +0.000     +0.000     -0.000
      +0.001     -0.002     +0.004
      -0.007     +0.645     +0.014
      +0.001     +0.000     -0.002
      -0.020     +0.018     -0.048
      -0.013     +0.007     -0.000
      +0.008     -0.008     +0.022
      -0.001     -0.003     +0.001
vibration  25
      +0.000     -0.000     -0.000
      -0.001     +0.000     +0.000
      -0.002     +0.001     +0.001
      -0.000     +0.000     +0.000
      +0.005     -0.004     +0.011
      +0.000     +0.003     -0.000
      +0.071     -0.042     +0.053
      -0.045     +0.043     -0.122
      -0.621     +0.289     -0.008
      -0.222     +0.220     -0.636
      +0.000     +0.000     +0.000
vibration  26
      -0.046     +0.087     +0.001
      -0.002     +0.002     +0.000
      +0.573     -0.290     +0.007
      +0.000     -0.001     +0.000
      +0.000     -0.000     +0.000
      -0.008     -0.760     -0.018
      +0.000     -0.000     +0.000
      +0.001     +0.000     -0.001
      -0.002     +0.001     -0.000
      -0.001     +0.001     -0.003
      -0.002     -0.002     -0.001
vibration  27
      +0.000     +0.001     +0.000
      +0.000     +0.001     -0.002
      +0.000     -0.001     -0.002
      +0.009     -0.027     -0.056
      +0.000     +0.000     -0.000
      +0.000     +0.000     +0.002
      -0.000     +0.000     -0.000
      -0.001     -0.000     -0.000
      -0.000     +0.000     +0.000
      +0.000     +0.000     +0.000
      -0.145     +0.402     +0.902
