[Molden Format]
[FR-COORD] # Coordinates in bohr
  C    -2.836610    -0.746987    +0.288742 
  C    -0.680048    +0.491523    +0.246499 
  H    -4.589469    +0.262055    +0.279442 
  O    -0.687012    +3.119690    +0.360522 
  C    +1.842451    -0.700461    +0.225092 
  H    -2.882466    -2.764401    +0.396942 
  C    +2.432960    -2.729602    -1.091333 
  H    +3.238260    +0.211034    +1.389066 
  H    +4.284301    -3.550108    -1.003394 
  H    +1.089697    -3.634548    -2.311605 
  H    +0.728710    +3.847183    -0.531061 
[FREQ] # Frequencies in cm^-1
  130.4857
  268.5437
  303.1373
  430.9561
  484.8309
  627.1983
  807.3520
  845.2603
  871.6587
 1058.2559
 1076.2783
 1131.6319
 1170.3581
 1209.4465
 1328.9662
 1373.9386
 1460.2163
 1592.0317
 1612.6895
 1844.9679
 1880.7975
 3316.3305
 3330.4244
 3357.2704
 3404.6942
 3443.9206
 3885.3786
[FR-NORM-COORD] # Displacements in bohr
vibration  1
      -0.039     +0.009     +0.084
      -0.019     -0.030     +0.052
      -0.025     +0.034     -0.020
      +0.043     -0.023     -0.145
      -0.046     -0.094     +0.183
      -0.065     +0.016     +0.206
      +0.043     +0.139     -0.133
      -0.157     -0.328     +0.500
      +0.009     +0.065     -0.086
      +0.143     +0.414     -0.447
      +0.147     -0.137     -0.073
vibration  2
      -0.061     +0.037     -0.003
      -0.027     -0.028     -0.013
      -0.027     +0.099     +0.026
      +0.059     -0.013     +0.065
      -0.022     -0.015     -0.006
      -0.131     +0.037     -0.006
      +0.070     +0.007     +0.001
      -0.068     +0.045     -0.001
      +0.104     +0.085     +0.028
      +0.127     -0.057     -0.015
      -0.483     -0.025     -0.819
vibration  3
      +0.147     -0.082     -0.068
      +0.075     +0.045     +0.036
      +0.076     -0.210     -0.199
      -0.045     +0.050     +0.008
      +0.050     -0.001     +0.091
      +0.281     -0.081     -0.002
      -0.170     -0.001     -0.013
      +0.098     -0.152     +0.145
      -0.278     -0.247     -0.065
      -0.289     +0.247     -0.066
      -0.383     +0.117     -0.483
vibration  4
      -0.049     -0.052     -0.074
      -0.033     -0.065     +0.148
      -0.046     -0.049     -0.325
      +0.118     -0.071     -0.043
      +0.009     +0.092     +0.045
      -0.076     -0.051     -0.036
      -0.078     +0.103     +0.006
      +0.136     +0.332     -0.301
      +0.020     +0.285     -0.411
      -0.285     -0.064     +0.360
      +0.184     -0.259     -0.093
vibration  5
      -0.028     +0.170     -0.028
      +0.101     -0.063     +0.116
      +0.181     +0.536     -0.233
      -0.188     -0.048     -0.037
      +0.156     -0.058     +0.047
      -0.431     +0.185     +0.027
      +0.042     -0.046     -0.047
      +0.268     -0.026     -0.115
      +0.061     -0.031     -0.302
      -0.109     -0.044     +0.118
      -0.222     +0.109     +0.040
vibration  6
      -0.019     +0.028     +0.034
      +0.051     -0.101     -0.223
      +0.136     +0.305     +0.254
      +0.027     -0.183     +0.035
      +0.090     +0.162     +0.004
      -0.294     +0.043     +0.131
      -0.090     +0.108     +0.069
      -0.080     +0.123     +0.228
      -0.291     -0.319     +0.174
      -0.234     +0.456     -0.032
      -0.036     -0.037     +0.064
vibration  7
      -0.015     -0.008     -0.009
      -0.005     -0.012     +0.155
      +0.016     +0.053     +0.396
      -0.003     -0.006     -0.049
      +0.035     +0.061     -0.075
      -0.081     -0.043     -0.723
      -0.004     -0.002     +0.010
      -0.013     -0.092     +0.105
      -0.114     -0.219     +0.312
      +0.072     +0.113     -0.160
      +0.048     -0.185     -0.112
vibration  8
      -0.021     -0.012     +0.000
      -0.008     -0.005     +0.094
      -0.008     +0.010     -0.625
      +0.010     -0.011     +0.013
      +0.010     +0.067     -0.113
      -0.064     +0.015     +0.488
      +0.005     -0.013     -0.006
      -0.004     -0.096     +0.034
      -0.097     -0.203     +0.433
      +0.162     +0.069     -0.238
      +0.028     -0.060     +0.003
vibration  9
      +0.208     +0.087     -0.007
      +0.139     +0.009     +0.052
      +0.316     +0.263     +0.000
      -0.024     -0.159     -0.020
      -0.261     -0.002     -0.032
      +0.099     +0.096     -0.080
      -0.095     +0.065     +0.014
      -0.180     -0.019     -0.118
      +0.100     +0.535     +0.296
      +0.269     -0.303     -0.102
      -0.120     +0.054     +0.016
vibration  10
      -0.036     +0.166     -0.012
      -0.051     +0.138     +0.031
      -0.385     -0.463     +0.025
      -0.009     -0.187     -0.011
      +0.045     -0.001     +0.000
      +0.683     +0.148     +0.012
      +0.041     -0.018     -0.008
      +0.050     -0.004     +0.006
      -0.024     -0.172     -0.058
      -0.060     +0.064     +0.038
      -0.109     -0.002     +0.007
vibration  11
      -0.008     -0.011     -0.170
      +0.003     -0.001     +0.068
      +0.011     +0.033     +0.718
      -0.003     +0.008     -0.005
      +0.004     +0.003     -0.002
      -0.009     +0.032     +0.658
      -0.005     -0.002     -0.003
      +0.048     -0.012     -0.042
      +0.001     +0.015     +0.062
      +0.039     -0.003     -0.048
      +0.027     -0.052     -0.008
vibration  12
      -0.007     +0.002     +0.005
      +0.002     -0.002     +0.002
      -0.013     -0.008     -0.009
      +0.002     -0.001     -0.002
      -0.005     -0.005     +0.008
      +0.014     -0.000     -0.035
      -0.028     -0.073     +0.092
      +0.115     +0.280     -0.358
      +0.091     +0.158     -0.259
      +0.227     +0.493     -0.607
      -0.005     +0.026     +0.012
vibration  13
      -0.005     -0.001     +0.006
      +0.008     -0.010     -0.013
      -0.011     -0.012     +0.019
      +0.003     +0.007     -0.002
      -0.035     -0.068     +0.096
      +0.003     -0.005     -0.052
      +0.031     +0.061     -0.081
      +0.201     +0.422     -0.572
      -0.188     -0.371     +0.496
      -0.005     -0.008     +0.008
      -0.010     +0.063     +0.025
vibration  14
      -0.064     -0.009     +0.013
      -0.005     +0.009     -0.051
      -0.124     -0.106     +0.030
      +0.008     -0.011     +0.002
      +0.119     +0.018     +0.053
      -0.022     -0.019     -0.064
      -0.118     +0.024     -0.019
      +0.477     -0.338     -0.099
      +0.067     +0.458     +0.333
      +0.305     -0.351     -0.183
      -0.020     +0.038     +0.001
vibration  15
      +0.074     +0.006     +0.006
      -0.077     +0.081     -0.048
      +0.182     +0.193     -0.043
      -0.053     -0.006     +0.039
      +0.013     -0.004     +0.027
      +0.003     +0.022     +0.033
      +0.009     -0.013     -0.009
      +0.132     -0.037     -0.081
      +0.005     -0.032     -0.026
      +0.030     -0.028     -0.024
      +0.269     -0.873     -0.191
vibration  16
      -0.030     +0.131     -0.000
      +0.118     -0.250     -0.020
      -0.260     -0.308     -0.016
      -0.054     +0.103     +0.023
      +0.018     -0.001     -0.012
      +0.512     +0.107     +0.018
      -0.051     +0.010     -0.008
      -0.270     +0.257     +0.117
      -0.005     +0.138     +0.122
      +0.032     -0.055     -0.043
      +0.191     -0.462     -0.097
vibration  17
      -0.016     +0.018     +0.001
      +0.037     -0.049     -0.014
      -0.073     -0.087     +0.001
      -0.009     +0.020     +0.005
      -0.080     -0.049     -0.069
      +0.047     +0.012     -0.003
      +0.055     +0.082     +0.083
      +0.454     -0.619     -0.288
      +0.014     +0.026     +0.027
      -0.259     +0.400     +0.205
      +0.020     -0.071     -0.031
vibration  18
      +0.033     +0.014     +0.000
      +0.075     +0.069     -0.003
      -0.292     -0.532     +0.014
      -0.015     -0.013     +0.006
      +0.011     -0.037     -0.014
      -0.666     +0.021     +0.012
      -0.003     -0.012     -0.010
      -0.138     +0.130     +0.035
      +0.071     +0.187     +0.151
      -0.153     +0.142     +0.050
      +0.040     -0.157     -0.033
vibration  19
      +0.008     +0.019     +0.001
      +0.058     -0.019     -0.010
      -0.153     -0.260     +0.020
      -0.005     +0.003     +0.002
      -0.074     +0.087     +0.037
      -0.239     +0.020     +0.002
      +0.013     +0.021     +0.020
      +0.170     -0.169     -0.052
      -0.173     -0.483     -0.439
      +0.395     -0.373     -0.130
      +0.018     -0.053     -0.012
vibration  20
      -0.076     -0.027     +0.007
      +0.117     -0.005     -0.022
      -0.036     +0.060     +0.024
      -0.001     -0.004     +0.003
      -0.163     +0.310     +0.170
      +0.114     -0.047     -0.041
      +0.101     -0.289     -0.182
      +0.330     -0.170     +0.034
      +0.348     +0.201     +0.263
      -0.503     +0.226     +0.015
      +0.018     -0.060     -0.019
vibration  21
      +0.316     +0.173     -0.010
      -0.379     -0.236     +0.010
      +0.043     -0.433     +0.040
      +0.037     +0.024     -0.013
      +0.017     +0.085     +0.042
      -0.371     +0.254     +0.002
      +0.016     -0.070     -0.042
      +0.225     -0.142     -0.024
      +0.080     +0.056     +0.131
      -0.116     +0.084     -0.033
      -0.090     +0.353     +0.087
vibration  22
      -0.000     +0.000     -0.000
      -0.000     -0.002     -0.000
      +0.008     -0.005     -0.000
      +0.000     +0.000     +0.000
      -0.047     -0.029     -0.038
      +0.000     +0.003     +0.000
      +0.017     -0.029     -0.016
      +0.559     +0.362     +0.464
      -0.430     +0.185     -0.024
      +0.228     +0.149     +0.205
      -0.002     +0.002     -0.002
vibration  23
      +0.002     +0.001     +0.000
      -0.001     +0.001     +0.000
      -0.021     +0.013     +0.000
      +0.000     -0.000     -0.000
      +0.029     +0.029     +0.032
      -0.001     -0.027     +0.001
      +0.006     -0.050     -0.036
      -0.378     -0.247     -0.314
      -0.468     +0.201     -0.026
      +0.438     +0.288     +0.393
      -0.000     -0.001     +0.001
vibration  24
      -0.063     -0.030     +0.003
      +0.008     +0.005     -0.000
      +0.637     -0.368     +0.004
      -0.000     +0.000     +0.000
      +0.002     +0.001     +0.001
      +0.010     +0.672     -0.035
      +0.001     -0.001     -0.001
      -0.021     -0.012     -0.015
      -0.020     +0.010     -0.001
      +0.009     +0.006     +0.009
      +0.001     -0.002     -0.002
vibration  25
      +0.002     -0.003     +0.000
      -0.000     +0.001     +0.000
      -0.026     +0.014     -0.000
      -0.000     -0.000     -0.000
      +0.009     +0.006     +0.007
      +0.000     +0.016     -0.000
      +0.091     -0.000     +0.035
      -0.091     -0.062     -0.078
      -0.655     +0.297     -0.027
      -0.438     -0.307     -0.408
      +0.000     -0.000     +0.001
vibration  26
      -0.046     +0.088     -0.003
      -0.002     +0.002     -0.000
      +0.586     -0.323     +0.003
      -0.000     -0.001     -0.000
      +0.001     +0.000     +0.000
      -0.025     -0.734     +0.039
      +0.003     +0.000     +0.001
      -0.004     -0.003     -0.003
      -0.018     +0.007     -0.000
      -0.016     -0.011     -0.017
      -0.000     -0.001     +0.001
vibration  27
      +0.001     +0.000     +0.000
      -0.002     +0.001     +0.001
      +0.001     +0.001     +0.001
      -0.048     -0.028     +0.029
      +0.000     +0.000     -0.000
      +0.000     -0.001     -0.001
      +0.000     -0.000     -0.000
      +0.001     -0.001     -0.001
      -0.001     +0.000     +0.001
      +0.001     +0.001     -0.000
      +0.771     +0.416     -0.478
