[Molden Format]
[FR-COORD] # Coordinates in bohr
  C    -2.971628    -1.196738    -0.308838 
  C    -0.864764    +0.110233    -0.371254 
  H    -4.776062    -0.277104    -0.335702 
  O    -0.869573    +2.760547    -0.518151 
  C    +1.687736    -1.079285    -0.425822 
  H    -2.938362    -3.219267    -0.252260 
  C    +3.210756    -1.159548    +1.537392 
  H    +2.281436    -1.847704    -2.209937 
  H    +5.053217    -1.998073    +1.420668 
  H    +2.678543    -0.408226    +3.346598 
  H    -1.144237    +3.532724    +1.116514 
[FREQ] # Frequencies in cm^-1
 -382.5480
 -150.9665
  294.9154
  348.2279
  480.4018
  696.6636
  775.8923
  818.2204
  862.7453
 1035.7089
 1105.1230
 1117.6732
 1158.5225
 1208.5854
 1275.2108
 1439.6988
 1463.5766
 1580.9867
 1616.1341
 1836.0110
 1882.9324
 3313.9476
 3331.5913
 3341.3769
 3392.3495
 3424.0741
 3849.1730
[FR-NORM-COORD] # Displacements in bohr
vibration  1
      +0.003     +0.000     -0.013
      +0.003     -0.004     +0.007
      +0.018     +0.025     -0.009
      -0.080     +0.002     -0.025
      +0.008     +0.009     +0.013
      -0.007     -0.002     -0.047
      +0.005     -0.011     +0.015
      +0.032     +0.058     -0.001
      +0.017     +0.018     +0.004
      -0.012     -0.067     +0.034
      +0.977     +0.005     +0.156
vibration  2
      +0.053     -0.025     +0.117
      +0.014     +0.030     +0.006
      +0.026     -0.075     +0.131
      -0.041     +0.025     -0.101
      +0.061     +0.136     -0.045
      +0.109     -0.021     +0.194
      -0.070     -0.169     +0.043
      +0.235     +0.552     -0.168
      -0.014     -0.040     +0.002
      -0.240     -0.556     +0.153
      -0.168     +0.078     -0.148
vibration  3
      +0.017     +0.017     -0.097
      -0.010     +0.074     +0.111
      -0.004     -0.033     -0.341
      -0.150     +0.068     -0.080
      -0.021     -0.001     +0.157
      +0.064     +0.019     -0.036
      +0.196     -0.146     -0.014
      -0.222     -0.132     +0.142
      +0.082     -0.365     -0.275
      +0.543     -0.077     +0.058
      -0.261     +0.181     -0.152
vibration  4
      +0.162     -0.051     +0.059
      +0.062     +0.098     -0.088
      +0.069     -0.232     +0.206
      -0.083     +0.102     +0.022
      -0.010     -0.066     -0.056
      +0.361     -0.049     +0.046
      -0.101     -0.049     +0.012
      -0.141     -0.476     +0.080
      -0.248     -0.402     +0.238
      -0.051     +0.338     -0.133
      -0.006     +0.011     +0.079
vibration  5
      -0.038     +0.178     +0.035
      +0.101     -0.065     -0.105
      +0.158     +0.572     +0.120
      -0.189     -0.046     +0.022
      +0.161     -0.066     -0.050
      -0.454     +0.178     +0.066
      +0.056     -0.021     +0.050
      +0.231     -0.137     +0.005
      +0.059     -0.039     +0.212
      -0.061     +0.053     -0.016
      -0.269     -0.213     +0.087
vibration  6
      -0.096     -0.050     +0.043
      -0.111     +0.011     -0.348
      -0.172     -0.188     +0.320
      +0.049     +0.057     +0.035
      -0.005     +0.056     +0.112
      +0.037     -0.044     +0.270
      +0.099     -0.024     +0.068
      +0.188     +0.002     +0.192
      +0.044     -0.113     -0.273
      +0.425     -0.137     +0.207
      +0.047     -0.338     +0.226
vibration  7
      +0.025     +0.012     -0.001
      +0.004     +0.032     -0.019
      -0.050     -0.138     +0.074
      -0.035     +0.121     -0.004
      -0.037     -0.249     +0.029
      +0.180     +0.011     -0.037
      +0.028     +0.008     -0.001
      +0.151     +0.142     -0.078
      +0.343     +0.711     -0.086
      -0.234     -0.328     +0.063
      -0.083     +0.043     +0.029
vibration  8
      +0.048     +0.017     +0.004
      +0.035     -0.001     -0.027
      +0.072     +0.041     -0.647
      -0.006     -0.016     +0.026
      -0.048     -0.002     +0.009
      +0.036     +0.039     +0.699
      -0.031     +0.010     -0.026
      -0.056     +0.055     -0.018
      -0.012     +0.061     -0.077
      -0.028     -0.040     -0.006
      +0.018     -0.201     +0.118
vibration  9
      +0.172     +0.084     -0.002
      +0.115     +0.015     -0.060
      +0.256     +0.251     +0.404
      -0.027     -0.140     -0.005
      -0.193     +0.031     +0.106
      +0.060     +0.081     -0.334
      -0.085     +0.032     -0.021
      -0.098     +0.111     +0.104
      -0.058     +0.161     -0.508
      +0.226     -0.198     +0.161
      -0.063     -0.116     -0.027
vibration  10
      -0.032     +0.164     -0.018
      -0.066     +0.159     -0.022
      -0.338     -0.459     +0.033
      -0.020     -0.204     +0.027
      +0.042     -0.022     -0.017
      +0.659     +0.176     +0.095
      +0.055     -0.013     +0.009
      +0.006     +0.009     -0.045
      +0.084     +0.018     +0.216
      -0.117     -0.001     -0.041
      +0.037     +0.075     -0.114
vibration  11
      -0.005     +0.017     +0.166
      -0.008     +0.006     -0.049
      -0.032     -0.063     -0.683
      +0.002     -0.003     -0.004
      +0.004     -0.007     -0.004
      +0.061     -0.007     -0.684
      -0.001     +0.012     +0.003
      +0.070     -0.023     +0.024
      -0.025     -0.038     -0.043
      +0.033     -0.046     +0.036
      -0.012     -0.100     +0.040
vibration  12
      -0.001     +0.005     +0.004
      -0.001     -0.001     +0.000
      -0.008     -0.010     -0.023
      -0.001     -0.003     +0.000
      -0.006     -0.021     +0.004
      +0.022     +0.005     -0.022
      -0.045     -0.092     +0.028
      +0.219     +0.458     -0.129
      +0.080     +0.197     -0.073
      +0.331     +0.716     -0.198
      +0.007     -0.011     +0.005
vibration  13
      -0.005     -0.007     +0.007
      -0.008     +0.010     -0.005
      +0.004     +0.011     -0.047
      +0.004     -0.010     +0.003
      +0.048     +0.107     -0.031
      -0.031     -0.007     -0.005
      -0.043     -0.110     +0.033
      -0.269     -0.581     +0.160
      +0.286     +0.642     -0.172
      +0.021     +0.070     -0.022
      +0.013     +0.032     -0.017
vibration  14
      -0.034     +0.026     -0.018
      +0.018     -0.022     +0.056
      -0.116     -0.141     -0.039
      -0.010     +0.008     +0.011
      +0.073     -0.044     -0.075
      +0.121     +0.028     +0.114
      -0.102     +0.056     +0.036
      +0.474     -0.215     +0.132
      -0.191     -0.079     -0.536
      +0.401     -0.127     +0.244
      +0.016     +0.202     -0.081
vibration  15
      +0.039     -0.080     +0.019
      -0.060     +0.101     -0.081
      +0.211     +0.271     -0.138
      -0.002     -0.053     +0.068
      -0.004     -0.033     -0.003
      -0.311     -0.074     +0.073
      +0.017     +0.001     +0.003
      +0.127     +0.027     +0.011
      +0.028     +0.013     +0.030
      +0.002     -0.024     +0.011
      +0.074     +0.763     -0.332
vibration  16
      -0.060     +0.075     +0.015
      +0.148     -0.223     -0.085
      -0.238     -0.310     -0.047
      -0.023     +0.046     +0.054
      -0.040     +0.062     +0.081
      +0.258     +0.066     +0.027
      +0.006     -0.021     -0.050
      -0.092     +0.050     +0.078
      -0.008     -0.025     -0.009
      -0.244     +0.078     -0.169
      +0.037     +0.695     -0.260
vibration  17
      -0.005     +0.007     +0.005
      +0.020     -0.027     -0.031
      -0.029     -0.044     -0.015
      -0.003     +0.004     +0.010
      +0.032     -0.039     -0.074
      +0.006     +0.004     +0.000
      -0.006     +0.036     +0.109
      -0.734     +0.203     -0.439
      -0.018     -0.003     -0.022
      +0.333     -0.072     +0.260
      +0.009     +0.116     -0.045
vibration  18
      -0.007     +0.003     -0.002
      -0.087     -0.086     +0.003
      +0.287     +0.545     -0.014
      +0.004     +0.020     +0.003
      -0.033     +0.014     -0.037
      +0.696     +0.028     +0.004
      +0.013     -0.005     +0.005
      +0.086     -0.053     +0.025
      +0.052     +0.030     +0.237
      +0.184     -0.049     +0.083
      -0.008     +0.062     -0.017
vibration  19
      +0.016     +0.016     -0.001
      +0.048     -0.010     +0.008
      -0.120     -0.249     -0.011
      -0.003     +0.001     +0.001
      -0.102     +0.027     -0.061
      -0.245     +0.008     +0.011
      +0.002     -0.009     -0.026
      +0.220     -0.072     +0.083
      +0.128     +0.139     +0.650
      +0.506     -0.164     +0.208
      -0.000     +0.025     -0.010
vibration  20
      -0.172     -0.102     +0.008
      +0.144     +0.124     -0.021
      -0.007     +0.295     +0.023
      -0.004     -0.018     -0.001
      +0.203     -0.037     +0.211
      +0.264     -0.126     -0.023
      -0.196     +0.018     -0.234
      -0.277     +0.143     +0.022
      -0.120     +0.190     +0.399
      +0.459     -0.219     +0.013
      -0.007     -0.043     +0.009
vibration  21
      +0.303     +0.180     -0.006
      -0.367     -0.196     -0.010
      +0.071     -0.412     +0.021
      +0.010     +0.030     +0.005
      +0.215     -0.026     +0.156
      -0.390     +0.232     -0.004
      -0.134     +0.010     -0.163
      -0.203     +0.061     +0.017
      -0.115     +0.068     +0.218
      +0.273     -0.111     -0.033
      +0.008     +0.079     -0.015
vibration  22
      -0.000     -0.000     -0.000
      +0.000     +0.000     +0.000
      +0.006     -0.003     +0.000
      +0.000     -0.000     -0.000
      -0.013     +0.011     +0.019
      -0.000     +0.005     +0.000
      +0.037     -0.001     +0.053
      +0.096     -0.125     -0.288
      -0.575     +0.265     +0.048
      +0.189     -0.260     -0.618
      +0.000     +0.000     +0.000
vibration  23
      +0.008     +0.004     -0.000
      -0.002     -0.000     -0.000
      -0.085     +0.045     -0.002
      -0.000     -0.000     -0.000
      +0.017     -0.029     -0.073
      +0.003     -0.086     +0.002
      +0.002     +0.009     +0.033
      -0.264     +0.346     +0.803
      -0.060     +0.028     +0.007
      +0.099     -0.138     -0.330
      +0.001     -0.000     -0.000
vibration  24
      -0.063     -0.032     +0.001
      +0.009     +0.006     -0.000
      +0.661     -0.340     +0.010
      +0.000     +0.000     -0.000
      +0.002     -0.004     -0.009
      -0.016     +0.653     -0.019
      -0.000     +0.001     +0.004
      -0.035     +0.045     +0.103
      -0.002     +0.002     -0.000
      +0.011     -0.016     -0.038
      -0.001     -0.003     +0.000
vibration  25
      +0.000     +0.000     -0.000
      +0.001     -0.000     +0.000
      -0.001     +0.000     +0.001
      +0.000     -0.000     -0.000
      -0.004     +0.007     +0.017
      -0.000     -0.001     -0.000
      -0.072     +0.045     +0.046
      +0.054     -0.073     -0.171
      +0.698     -0.316     -0.037
      +0.149     -0.221     -0.542
      +0.001     -0.000     +0.001
vibration  26
      -0.048     +0.086     -0.002
      -0.002     +0.002     -0.000
      +0.588     -0.287     +0.009
      +0.000     -0.001     +0.000
      +0.000     -0.000     -0.000
      +0.002     -0.749     +0.021
      +0.000     -0.000     -0.000
      +0.002     -0.000     -0.001
      +0.000     +0.000     -0.000
      -0.000     +0.001     +0.001
      -0.002     -0.002     -0.001
vibration  27
      +0.000     -0.001     -0.000
      -0.000     -0.001     +0.002
      -0.000     +0.001     +0.002
      -0.009     +0.029     +0.054
      -0.000     -0.000     +0.000
      -0.000     -0.000     -0.002
      +0.000     +0.000     +0.000
      +0.000     -0.000     -0.000
      +0.001     -0.000     +0.000
      +0.000     -0.001     -0.001
      +0.151     -0.441     -0.883
