[Molden Format]
[FR-COORD] # Coordinates in bohr
  C    -2.844716    -0.723402    +0.217335 
  C    -0.683838    +0.520633    +0.190371 
  H    -4.634524    +0.230013    +0.210387 
  O    -0.476138    +3.122786    +0.246466 
  C    +1.848416    -0.639323    +0.165164 
  H    -2.878154    -2.741802    +0.270176 
  C    +2.401029    -2.847990    -0.840268 
  H    +3.284047    +0.506954    +1.021938 
  H    +4.284763    -3.591851    -0.769401 
  H    +1.013446    -3.982290    -1.788515 
  H    -2.096481    +3.955266    +0.327715 
[FREQ] # Frequencies in cm^-1
  104.0153
  306.5454
  411.0172
  468.1816
  502.2356
  618.9859
  789.1462
  838.1420
  874.4346
 1038.8064
 1061.0124
 1122.8332
 1163.1016
 1211.6091
 1256.3693
 1442.7605
 1497.9296
 1604.5055
 1628.2595
 1843.5311
 1857.8431
 3326.9881
 3338.2028
 3361.8362
 3405.9257
 3432.5168
 3903.6646
[FR-NORM-COORD] # Displacements in bohr
vibration  1
      -0.010     -0.003     +0.070
      -0.004     -0.014     +0.044
      -0.008     +0.002     -0.054
      +0.025     -0.014     -0.124
      -0.029     -0.068     +0.195
      -0.009     +0.001     +0.221
      +0.012     +0.096     -0.141
      -0.096     -0.263     +0.571
      -0.029     +0.000     -0.040
      +0.077     +0.341     -0.530
      +0.033     +0.010     -0.202
vibration  2
      +0.207     -0.113     -0.058
      +0.100     +0.074     +0.015
      +0.114     -0.293     -0.169
      -0.099     +0.082     -0.001
      +0.073     +0.025     +0.049
      +0.399     -0.112     +0.008
      -0.228     -0.034     +0.005
      +0.177     -0.142     +0.096
      -0.351     -0.342     -0.013
      -0.405     +0.220     -0.038
      -0.173     -0.059     -0.001
vibration  3
      +0.009     +0.014     +0.021
      +0.004     +0.020     -0.081
      +0.006     +0.008     +0.045
      -0.027     +0.025     -0.038
      -0.011     -0.024     -0.012
      +0.022     +0.015     +0.074
      +0.029     -0.029     +0.016
      -0.054     -0.094     +0.157
      +0.000     -0.084     +0.221
      +0.101     +0.023     -0.154
      -0.008     -0.030     +0.922
vibration  4
      +0.030     +0.065     +0.061
      +0.029     +0.052     -0.113
      +0.039     +0.086     +0.366
      -0.108     +0.073     +0.082
      +0.003     -0.081     -0.060
      +0.013     +0.064     -0.043
      +0.077     -0.103     -0.004
      -0.046     -0.236     +0.238
      +0.036     -0.176     +0.367
      +0.224     -0.044     -0.293
      -0.205     -0.051     -0.557
vibration  5
      +0.022     -0.159     +0.031
      -0.094     +0.050     -0.114
      -0.145     -0.482     +0.250
      +0.169     +0.027     +0.045
      -0.145     +0.048     -0.051
      +0.394     -0.170     -0.014
      -0.039     +0.047     +0.041
      -0.229     +0.023     +0.124
      -0.046     +0.056     +0.320
      +0.101     +0.031     -0.145
      +0.287     +0.276     -0.143
vibration  6
      -0.031     +0.025     +0.032
      +0.046     -0.104     -0.181
      +0.108     +0.295     +0.302
      +0.016     -0.166     +0.041
      +0.104     +0.154     -0.017
      -0.321     +0.034     +0.039
      -0.080     +0.109     +0.059
      -0.025     +0.134     +0.215
      -0.256     -0.304     +0.236
      -0.251     +0.437     -0.085
      +0.019     -0.156     -0.076
vibration  7
      -0.008     +0.002     +0.017
      -0.002     +0.001     -0.082
      -0.009     -0.004     -0.627
      +0.002     +0.003     +0.062
      -0.004     -0.002     -0.013
      +0.002     +0.021     +0.764
      +0.010     -0.008     -0.006
      +0.003     +0.022     -0.056
      +0.018     +0.011     +0.001
      +0.014     -0.020     +0.001
      -0.008     -0.002     -0.077
vibration  8
      -0.027     -0.013     +0.002
      -0.010     -0.013     +0.217
      -0.002     +0.035     -0.430
      +0.010     -0.020     -0.028
      +0.022     +0.082     -0.180
      -0.085     -0.014     -0.060
      +0.003     -0.011     +0.005
      +0.004     -0.120     +0.125
      -0.116     -0.254     +0.672
      +0.150     +0.100     -0.342
      +0.041     +0.039     -0.040
vibration  9
      +0.202     +0.088     -0.002
      +0.135     +0.005     +0.020
      +0.295     +0.256     -0.048
      -0.021     -0.140     -0.005
      -0.250     +0.001     -0.024
      +0.083     +0.101     +0.005
      -0.095     +0.070     +0.012
      -0.183     -0.037     -0.094
      +0.087     +0.551     +0.218
      +0.259     -0.285     -0.068
      -0.103     -0.311     -0.008
vibration  10
      -0.007     -0.007     -0.175
      +0.002     -0.004     +0.084
      +0.004     +0.022     +0.668
      +0.001     +0.003     -0.007
      +0.002     +0.006     -0.012
      -0.014     +0.016     +0.706
      -0.003     -0.004     -0.000
      +0.034     -0.008     -0.047
      -0.000     +0.007     +0.079
      +0.037     +0.005     -0.067
      +0.005     +0.010     +0.017
vibration  11
      -0.023     +0.169     -0.007
      -0.050     +0.132     +0.017
      -0.343     -0.461     +0.009
      -0.032     -0.185     -0.004
      +0.045     -0.001     -0.000
      +0.714     +0.157     +0.024
      +0.037     -0.017     -0.006
      +0.042     +0.007     +0.003
      -0.020     -0.170     -0.042
      -0.061     +0.069     +0.030
      +0.053     -0.044     -0.001
vibration  12
      -0.004     +0.003     +0.006
      +0.002     -0.002     +0.002
      -0.007     -0.003     -0.019
      -0.000     +0.001     +0.000
      -0.004     -0.002     +0.003
      +0.017     +0.002     -0.040
      -0.018     -0.061     +0.110
      +0.059     +0.208     -0.383
      +0.073     +0.130     -0.310
      +0.160     +0.395     -0.698
      -0.004     -0.008     -0.004
vibration  13
      -0.000     +0.003     +0.006
      +0.008     -0.010     -0.011
      -0.007     -0.012     +0.013
      +0.001     +0.012     +0.001
      -0.030     -0.053     +0.106
      +0.015     +0.001     -0.049
      +0.027     +0.041     -0.087
      +0.092     +0.364     -0.655
      -0.137     -0.314     +0.532
      -0.008     +0.025     -0.021
      -0.022     -0.033     +0.001
vibration  14
      -0.054     -0.017     +0.010
      -0.013     +0.027     -0.042
      -0.076     -0.051     +0.021
      -0.009     -0.026     +0.003
      +0.122     +0.022     +0.052
      -0.050     -0.021     -0.037
      -0.113     +0.013     -0.021
      +0.500     -0.306     -0.140
      +0.067     +0.473     +0.277
      +0.308     -0.362     -0.160
      +0.083     +0.147     +0.006
vibration  15
      +0.090     -0.044     -0.000
      -0.074     +0.106     +0.001
      +0.293     +0.342     -0.009
      -0.062     -0.082     +0.001
      -0.010     -0.008     +0.015
      -0.202     -0.025     +0.013
      +0.038     -0.024     -0.008
      +0.026     +0.001     -0.051
      -0.003     -0.140     -0.071
      -0.030     +0.033     +0.011
      +0.379     +0.736     +0.004
vibration  16
      -0.008     -0.044     +0.001
      -0.022     +0.093     -0.007
      +0.013     +0.020     +0.005
      +0.028     -0.018     -0.000
      -0.075     -0.037     -0.030
      -0.196     -0.040     -0.003
      +0.068     +0.068     +0.048
      +0.489     -0.605     -0.232
      +0.002     -0.079     -0.034
      -0.188     +0.324     +0.124
      -0.124     -0.299     -0.003
vibration  17
      -0.014     +0.080     +0.000
      +0.082     -0.205     -0.006
      -0.094     -0.119     -0.004
      -0.060     +0.042     +0.003
      -0.040     -0.069     -0.048
      +0.340     +0.068     -0.008
      +0.012     +0.075     +0.041
      +0.164     -0.311     -0.111
      +0.031     +0.177     +0.109
      -0.223     +0.321     +0.117
      +0.248     +0.610     +0.004
vibration  18
      -0.017     +0.001     +0.000
      -0.057     -0.075     -0.007
      +0.207     +0.393     -0.000
      +0.010     +0.020     +0.001
      -0.036     +0.071     +0.022
      +0.511     +0.002     -0.005
      +0.007     +0.023     +0.014
      +0.215     -0.192     -0.045
      -0.145     -0.414     -0.243
      +0.307     -0.289     -0.078
      -0.034     -0.056     +0.001
vibration  19
      +0.010     +0.027     +0.000
      +0.105     -0.011     -0.004
      -0.264     -0.477     +0.012
      -0.020     -0.008     +0.000
      -0.066     +0.063     +0.018
      -0.456     +0.023     +0.007
      +0.010     +0.020     +0.013
      +0.086     -0.097     -0.022
      -0.137     -0.405     -0.255
      +0.294     -0.274     -0.075
      +0.087     +0.179     +0.002
vibration  20
      -0.267     -0.133     +0.006
      +0.338     +0.116     -0.008
      -0.039     +0.380     +0.010
      -0.026     -0.032     -0.001
      -0.147     +0.217     +0.084
      +0.420     -0.188     -0.035
      +0.071     -0.211     -0.095
      +0.114     -0.023     +0.043
      +0.236     +0.151     +0.101
      -0.355     +0.139     +0.040
      +0.101     +0.167     -0.001
vibration  21
      +0.181     +0.112     -0.000
      -0.197     -0.160     -0.014
      -0.001     -0.314     +0.022
      +0.024     +0.023     +0.001
      -0.083     +0.266     +0.104
      -0.237     +0.150     -0.016
      +0.068     -0.243     -0.108
      +0.391     -0.193     -0.000
      +0.278     +0.212     +0.195
      -0.395     +0.171     -0.013
      -0.051     -0.094     +0.005
vibration  22
      -0.004     -0.002     +0.000
      +0.001     +0.001     +0.000
      +0.042     -0.023     +0.000
      -0.000     +0.000     -0.000
      +0.012     +0.000     +0.003
      +0.000     +0.042     -0.001
      -0.015     +0.060     +0.028
      -0.119     -0.093     -0.070
      +0.639     -0.243     +0.028
      -0.487     -0.388     -0.327
      -0.000     -0.000     -0.000
vibration  23
      +0.072     +0.009     -0.001
      -0.007     -0.006     +0.000
      -0.779     +0.415     -0.003
      -0.000     +0.000     +0.000
      +0.003     +0.003     +0.002
      +0.005     -0.458     +0.011
      -0.002     +0.003     +0.001
      -0.036     -0.032     -0.023
      +0.045     -0.018     +0.002
      -0.020     -0.015     -0.013
      -0.000     +0.004     +0.000
vibration  24
      -0.004     -0.000     +0.000
      -0.000     +0.002     +0.000
      +0.039     -0.020     +0.001
      +0.000     -0.000     -0.000
      +0.055     +0.050     +0.036
      -0.001     +0.017     -0.001
      -0.020     -0.018     -0.014
      -0.675     -0.535     -0.400
      +0.063     -0.027     +0.003
      +0.199     +0.161     +0.134
      -0.002     -0.002     -0.000
vibration  25
      +0.002     -0.008     +0.000
      -0.000     +0.001     +0.000
      -0.036     +0.018     -0.000
      -0.000     -0.000     -0.000
      +0.016     +0.013     +0.010
      +0.001     +0.071     -0.001
      +0.091     +0.006     +0.026
      -0.177     -0.144     -0.106
      -0.664     +0.270     -0.021
      -0.430     -0.363     -0.300
      +0.001     -0.000     -0.000
vibration  26
      -0.028     +0.092     -0.002
      -0.003     +0.001     +0.000
      +0.397     -0.198     +0.002
      -0.000     -0.001     -0.000
      +0.002     +0.001     +0.001
      -0.022     -0.886     +0.023
      +0.007     +0.001     +0.003
      -0.012     -0.011     -0.007
      -0.045     +0.018     -0.001
      -0.044     -0.037     -0.031
      -0.001     -0.004     -0.000
vibration  27
      +0.001     -0.001     -0.000
      -0.003     -0.001     +0.000
      +0.000     +0.002     +0.000
      -0.054     +0.031     +0.003
      +0.001     -0.000     +0.000
      -0.001     -0.001     -0.000
      -0.000     -0.000     -0.000
      +0.000     -0.001     -0.000
      +0.001     +0.000     +0.000
      +0.000     +0.000     +0.000
      +0.878     -0.473     -0.045
