[Molden Format]
[FR-COORD] # Coordinates in bohr
  C    -2.986523    -1.100603    +0.383346 
  C    -0.846962    +0.156061    +0.403935 
  H    -4.753979    -0.116195    +0.405881 
  O    -0.863979    +2.781633    +0.473785 
  C    +1.685686    -1.079000    +0.394366 
  H    -3.005412    -3.121760    +0.344459 
  C    +3.068631    -1.316734    -1.660526 
  H    +2.380789    -1.740363    +2.185646 
  H    +4.904165    -2.177594    -1.613587 
  H    +2.405375    -0.688035    -3.472820 
  H    +0.816840    +3.469515    +0.333008 
[FREQ] # Frequencies in cm^-1
 -142.3860
  247.6793
  301.9541
  359.6779
  475.5265
  716.7093
  778.0874
  826.4229
  857.0851
 1053.7056
 1069.7993
 1127.9472
 1162.4341
 1211.7103
 1332.4196
 1401.8072
 1460.6834
 1590.9491
 1614.1783
 1837.1971
 1901.3463
 3314.6114
 3329.7922
 3352.2925
 3396.6211
 3437.9005
 3913.8455
[FR-NORM-COORD] # Displacements in bohr
vibration  1
      +0.055     -0.025     -0.125
      +0.019     +0.033     -0.015
      +0.029     -0.071     -0.137
      -0.053     +0.031     +0.138
      +0.068     +0.139     +0.025
      +0.110     -0.024     -0.182
      -0.074     -0.183     -0.031
      +0.253     +0.557     +0.110
      -0.019     -0.066     -0.001
      -0.246     -0.568     -0.101
      -0.099     +0.090     -0.136
vibration  2
      -0.038     +0.015     +0.012
      -0.019     -0.018     -0.032
      -0.020     +0.049     +0.020
      +0.021     -0.017     +0.071
      -0.017     -0.012     -0.023
      -0.077     +0.014     +0.082
      +0.049     +0.027     +0.016
      -0.036     +0.010     -0.007
      +0.069     +0.073     +0.074
      +0.093     +0.002     -0.010
      -0.063     -0.020     -0.970
vibration  3
      -0.006     -0.023     -0.106
      +0.015     -0.066     +0.109
      +0.010     +0.011     -0.377
      +0.136     -0.066     -0.076
      +0.028     +0.005     +0.161
      -0.038     -0.025     -0.011
      -0.195     +0.141     -0.003
      +0.220     +0.126     +0.127
      -0.098     +0.337     -0.283
      -0.534     +0.085     +0.100
      +0.163     -0.171     -0.270
vibration  4
      +0.141     -0.052     -0.048
      +0.055     +0.088     +0.054
      +0.048     -0.219     -0.162
      -0.063     +0.089     +0.002
      -0.021     -0.071     +0.042
      +0.326     -0.055     -0.013
      -0.078     -0.034     +0.001
      -0.175     -0.469     -0.049
      -0.232     -0.369     -0.153
      +0.007     +0.343     +0.099
      -0.126     +0.180     -0.327
vibration  5
      +0.029     -0.173     +0.027
      -0.105     +0.071     -0.093
      -0.182     -0.561     +0.182
      +0.186     +0.055     +0.022
      -0.156     +0.075     -0.047
      +0.435     -0.181     -0.016
      -0.046     +0.021     +0.048
      -0.220     +0.161     +0.011
      -0.037     +0.049     +0.216
      +0.067     -0.073     -0.026
      +0.295     -0.198     +0.061
vibration  6
      -0.100     -0.049     -0.040
      -0.106     +0.020     +0.375
      -0.184     -0.189     -0.517
      +0.025     +0.071     -0.052
      +0.012     +0.023     -0.105
      +0.038     -0.052     -0.134
      +0.104     -0.036     -0.082
      +0.235     -0.043     -0.208
      +0.090     -0.064     +0.247
      +0.388     -0.166     -0.228
      +0.101     -0.116     -0.092
vibration  7
      -0.035     -0.014     -0.003
      -0.014     -0.028     +0.008
      +0.037     +0.119     +0.115
      +0.033     -0.105     -0.007
      +0.056     +0.240     +0.016
      -0.177     -0.008     -0.138
      -0.021     -0.009     +0.001
      -0.146     -0.163     -0.057
      -0.341     -0.692     -0.030
      +0.231     +0.335     +0.029
      +0.047     -0.161     -0.057
vibration  8
      -0.021     -0.010     +0.005
      -0.017     +0.002     -0.062
      -0.030     -0.012     -0.600
      +0.007     +0.001     +0.040
      +0.020     +0.023     -0.002
      -0.014     -0.026     +0.775
      +0.009     -0.006     -0.016
      -0.004     -0.043     -0.016
      -0.026     -0.082     -0.032
      +0.038     +0.047     -0.009
      +0.021     -0.016     +0.125
vibration  9
      +0.186     +0.079     +0.001
      +0.130     +0.002     +0.081
      +0.292     +0.264     -0.276
      -0.015     -0.163     -0.009
      -0.228     +0.052     -0.110
      +0.065     +0.087     +0.119
      -0.095     +0.041     +0.029
      -0.124     +0.133     -0.122
      -0.056     +0.155     +0.572
      +0.264     -0.213     -0.184
      -0.121     +0.086     +0.025
vibration  10
      -0.036     +0.164     +0.015
      -0.052     +0.143     +0.007
      -0.367     -0.455     -0.064
      -0.007     -0.192     -0.005
      +0.037     -0.015     +0.013
      +0.673     +0.154     -0.054
      +0.050     -0.013     -0.009
      -0.016     +0.006     +0.043
      +0.061     -0.003     -0.213
      -0.119     -0.006     +0.051
      -0.113     +0.029     -0.001
vibration  11
      -0.004     +0.014     -0.169
      -0.003     +0.008     +0.067
      -0.026     -0.048     +0.727
      -0.001     -0.010     -0.008
      +0.002     -0.006     +0.002
      +0.042     -0.003     +0.644
      -0.005     +0.006     -0.005
      +0.084     -0.018     -0.032
      -0.014     -0.013     +0.068
      +0.055     -0.024     -0.035
      -0.003     -0.004     +0.014
vibration  12
      -0.003     +0.006     +0.003
      +0.001     -0.005     -0.002
      -0.018     -0.021     -0.007
      +0.001     -0.002     -0.001
      -0.017     -0.043     -0.005
      +0.031     +0.006     -0.004
      -0.036     -0.064     -0.012
      +0.288     +0.560     +0.102
      +0.016     +0.049     +0.023
      +0.335     +0.675     +0.109
      -0.012     +0.026     -0.001
vibration  13
      -0.001     -0.001     -0.003
      -0.007     +0.010     +0.000
      +0.004     +0.009     +0.026
      +0.001     -0.009     +0.001
      +0.047     +0.098     +0.020
      -0.013     -0.001     +0.000
      -0.059     -0.134     -0.026
      -0.234     -0.454     -0.076
      +0.330     +0.701     +0.113
      +0.117     +0.259     +0.045
      +0.014     -0.045     -0.011
vibration  14
      -0.047     +0.030     +0.022
      +0.021     -0.031     -0.078
      -0.159     -0.177     +0.011
      +0.002     +0.014     +0.005
      +0.080     -0.033     +0.074
      +0.142     +0.024     -0.092
      -0.108     +0.056     -0.030
      +0.448     -0.255     -0.152
      -0.159     -0.037     +0.557
      +0.375     -0.154     -0.263
      -0.040     +0.115     +0.005
vibration  15
      +0.081     +0.017     +0.005
      -0.074     +0.076     -0.022
      +0.179     +0.192     +0.006
      -0.065     -0.003     +0.007
      +0.020     -0.039     +0.032
      +0.036     +0.031     -0.011
      -0.004     +0.009     -0.018
      +0.151     -0.022     -0.009
      -0.006     -0.003     +0.040
      +0.087     -0.035     -0.067
      +0.304     -0.877     -0.042
vibration  16
      -0.029     +0.137     -0.002
      +0.126     -0.271     +0.016
      -0.251     -0.307     -0.025
      -0.058     +0.102     +0.004
      -0.023     +0.053     -0.046
      +0.533     +0.118     +0.031
      -0.003     -0.006     +0.015
      -0.299     +0.079     +0.064
      -0.028     -0.042     +0.012
      -0.098     +0.065     +0.076
      +0.211     -0.497     -0.028
vibration  17
      -0.001     +0.005     +0.003
      -0.000     -0.008     -0.017
      -0.001     +0.004     -0.005
      -0.003     +0.003     +0.001
      -0.042     +0.042     -0.088
      +0.036     +0.006     -0.005
      +0.014     -0.032     +0.118
      +0.675     -0.236     -0.476
      +0.017     +0.001     -0.020
      -0.350     +0.114     +0.309
      +0.014     -0.036     -0.006
vibration  18
      -0.023     -0.013     +0.000
      -0.070     -0.064     -0.007
      +0.270     +0.493     +0.019
      +0.017     +0.012     -0.000
      -0.047     +0.022     +0.050
      +0.608     -0.010     -0.005
      +0.010     -0.005     +0.002
      +0.130     -0.074     -0.047
      +0.048     +0.030     -0.368
      +0.272     -0.099     -0.137
      -0.052     +0.171     +0.011
vibration  19
      +0.028     +0.024     +0.002
      +0.056     -0.002     -0.010
      -0.183     -0.352     +0.003
      -0.009     +0.001     +0.001
      -0.089     +0.030     +0.057
      -0.366     +0.024     -0.008
      +0.002     -0.005     +0.026
      +0.194     -0.075     -0.087
      +0.073     +0.080     -0.601
      +0.435     -0.172     -0.205
      +0.027     -0.077     -0.001
vibration  20
      -0.099     -0.055     -0.005
      +0.077     +0.084     +0.024
      +0.001     +0.168     -0.025
      -0.013     -0.008     -0.001
      +0.221     -0.064     -0.249
      +0.139     -0.075     +0.021
      -0.198     +0.042     +0.272
      -0.311     +0.162     -0.013
      -0.167     +0.172     -0.431
      +0.492     -0.246     -0.027
      +0.040     -0.131     -0.006
vibration  21
      +0.327     +0.177     +0.002
      -0.421     -0.218     +0.008
      +0.084     -0.401     -0.017
      +0.044     +0.022     -0.003
      +0.143     -0.020     -0.094
      -0.360     +0.254     +0.011
      -0.068     +0.012     +0.093
      -0.113     +0.018     -0.002
      -0.085     +0.003     -0.093
      +0.138     -0.044     +0.023
      -0.132     +0.401     +0.024
vibration  22
      -0.000     -0.000     +0.000
      +0.000     +0.000     -0.000
      +0.007     -0.004     -0.000
      +0.000     -0.000     -0.000
      -0.016     +0.013     -0.027
      -0.000     +0.006     -0.000
      +0.034     -0.007     -0.050
      +0.148     -0.142     +0.382
      -0.582     +0.274     -0.024
      +0.210     -0.195     +0.557
      -0.000     +0.000     -0.001
vibration  23
      +0.003     +0.001     +0.000
      -0.001     +0.000     +0.000
      -0.029     +0.017     +0.001
      +0.000     -0.000     +0.000
      +0.019     -0.023     +0.072
      +0.000     -0.032     -0.001
      +0.007     +0.004     -0.039
      -0.297     +0.287     -0.775
      -0.163     +0.077     -0.007
      +0.143     -0.135     +0.385
      -0.002     -0.000     +0.001
vibration  24
      -0.062     -0.032     -0.001
      +0.009     +0.005     +0.000
      +0.640     -0.358     -0.008
      -0.000     +0.000     +0.000
      +0.001     -0.001     +0.003
      +0.002     +0.674     +0.013
      -0.000     +0.000     -0.001
      -0.016     +0.015     -0.038
      -0.001     +0.001     +0.000
      +0.004     -0.005     +0.012
      +0.002     -0.002     -0.000
vibration  25
      +0.000     -0.000     -0.000
      -0.001     +0.000     +0.000
      -0.001     +0.000     +0.001
      -0.000     +0.000     -0.000
      +0.005     -0.005     +0.014
      +0.000     +0.002     -0.000
      +0.074     -0.043     +0.048
      -0.054     +0.054     -0.149
      -0.670     +0.313     -0.010
      -0.201     +0.195     -0.580
      -0.000     +0.000     +0.001
vibration  26
      -0.047     +0.087     +0.002
      -0.002     +0.002     +0.000
      +0.593     -0.316     -0.007
      -0.000     -0.001     -0.000
      +0.000     -0.000     +0.000
      -0.018     -0.733     -0.014
      +0.000     -0.000     +0.000
      +0.001     +0.000     -0.000
      -0.000     +0.000     -0.000
      -0.001     +0.001     -0.002
      -0.001     -0.002     +0.000
vibration  27
      +0.001     +0.001     +0.000
      -0.003     +0.001     +0.000
      +0.001     +0.001     +0.000
      -0.057     -0.027     +0.005
      +0.001     +0.000     +0.000
      +0.000     -0.001     -0.000
      -0.000     -0.000     -0.000
      -0.000     +0.001     -0.001
      -0.001     -0.000     -0.000
      +0.001     +0.000     +0.001
      +0.914     +0.394     -0.075
