[Molden Format]
[FR-COORD] # Coordinates in bohr
  C    +1.279990    +0.679916    -0.000003 
  O    +3.423345    -0.090064    -0.000000 
  H    +0.861774    +2.696508    +0.000011 
  C    -1.017235    -1.029476    -0.000000 
  O    -3.360986    +0.328938    +0.000000 
  H    -0.928776    -2.231546    -1.652971 
  H    -0.928750    -2.231503    +1.653005 
  H    -3.122517    +2.137604    -0.000006 
[FREQ] # Frequencies in cm^-1
 -402.7112
   19.7427
  358.1027
  559.0537
  816.1326
 1025.6393
 1143.6011
 1213.0383
 1362.2068
 1373.8431
 1517.3287
 1552.3203
 1658.8423
 1924.4449
 3120.5012
 3222.2663
 3255.5540
 3876.2886
[FR-NORM-COORD] # Displacements in bohr
vibration  1
      -0.000     -0.000     +0.033
      -0.000     +0.000     -0.005
      -0.000     -0.000     +0.128
      +0.000     -0.000     -0.049
      +0.000     +0.000     +0.080
      +0.049     +0.034     -0.077
      -0.049     -0.034     -0.077
      -0.000     -0.000     -0.977
vibration  2
      +0.000     -0.000     +0.233
      +0.000     +0.000     -0.204
      -0.000     -0.000     +0.805
      -0.000     +0.000     +0.144
      -0.000     -0.000     -0.154
      +0.142     -0.130     +0.252
      -0.142     +0.130     +0.252
      -0.000     +0.000     -0.105
vibration  3
      +0.121     +0.209     +0.000
      -0.016     -0.212     -0.000
      +0.416     +0.260     -0.000
      +0.086     +0.256     -0.000
      -0.161     -0.175     +0.000
      +0.236     +0.243     +0.016
      +0.236     +0.243     -0.016
      -0.529     -0.125     -0.000
vibration  4
      +0.249     -0.182     -0.000
      +0.409     +0.136     +0.000
      +0.134     -0.199     +0.000
      -0.215     -0.010     -0.000
      -0.368     +0.021     +0.000
      -0.390     -0.024     +0.004
      -0.390     -0.024     -0.004
      -0.415     +0.039     +0.000
vibration  5
      -0.000     -0.000     -0.095
      -0.000     -0.000     +0.047
      -0.000     -0.000     +0.635
      +0.000     +0.000     -0.104
      +0.000     -0.000     +0.031
      -0.208     -0.439     +0.221
      +0.208     +0.439     +0.221
      -0.000     -0.000     +0.057
vibration  6
      +0.130     +0.322     -0.000
      -0.004     -0.052     +0.000
      +0.332     +0.370     +0.000
      -0.120     -0.291     +0.000
      -0.064     +0.036     -0.000
      -0.019     -0.215     -0.044
      -0.019     -0.215     +0.044
      +0.652     -0.054     -0.000
vibration  7
      -0.051     -0.077     -0.000
      -0.043     -0.003     +0.000
      -0.184     -0.132     +0.000
      +0.422     -0.131     -0.000
      -0.306     +0.169     +0.000
      +0.493     -0.080     -0.020
      +0.493     -0.080     +0.020
      +0.326     +0.123     +0.000
vibration  8
      +0.000     +0.000     +0.173
      -0.000     -0.000     -0.038
      +0.000     +0.000     -0.602
      -0.000     -0.000     -0.164
      -0.000     +0.000     +0.040
      +0.225     -0.448     +0.178
      -0.225     +0.448     +0.178
      +0.000     -0.000     +0.106
vibration  9
      +0.026     +0.070     +0.000
      -0.011     -0.020     -0.000
      -0.191     +0.011     -0.000
      +0.082     -0.104     -0.000
      +0.031     +0.050     -0.000
      -0.277     -0.115     -0.010
      -0.277     -0.115     +0.010
      -0.856     +0.151     -0.000
vibration  10
      +0.000     +0.000     -0.094
      -0.000     -0.000     +0.016
      -0.000     +0.000     +0.221
      +0.000     -0.000     +0.004
      +0.000     +0.000     +0.029
      +0.683     -0.001     +0.023
      -0.683     +0.001     +0.023
      -0.000     +0.000     +0.089
vibration  11
      -0.007     -0.005     +0.000
      +0.024     -0.006     -0.000
      -0.074     -0.015     -0.000
      -0.120     -0.048     -0.000
      +0.022     +0.043     -0.000
      +0.635     -0.020     +0.004
      +0.635     -0.020     -0.004
      -0.398     +0.091     -0.000
vibration  12
      +0.036     +0.062     +0.000
      +0.040     -0.054     -0.000
      -0.961     -0.121     -0.000
      -0.018     +0.028     +0.000
      -0.006     -0.013     +0.000
      +0.000     +0.072     -0.027
      +0.000     +0.072     +0.027
      +0.196     -0.033     +0.000
vibration  13
      -0.007     -0.012     +0.000
      +0.001     +0.003     -0.000
      +0.057     +0.001     -0.000
      +0.002     -0.079     -0.000
      +0.005     -0.004     +0.000
      -0.022     +0.555     -0.431
      -0.022     +0.555     +0.431
      -0.037     +0.002     +0.000
vibration  14
      +0.698     -0.199     +0.000
      -0.468     +0.165     -0.000
      -0.232     -0.373     -0.000
      -0.056     +0.012     +0.000
      -0.012     -0.007     +0.000
      +0.112     +0.040     -0.020
      +0.112     +0.040     +0.020
      -0.032     +0.014     -0.000
vibration  15
      +0.015     -0.082     -0.000
      -0.001     +0.000     -0.000
      -0.185     +0.979     +0.000
      +0.004     +0.000     -0.000
      -0.001     +0.001     +0.000
      -0.001     -0.009     -0.009
      -0.001     -0.009     +0.009
      -0.011     +0.009     -0.000
vibration  16
      -0.001     +0.002     -0.000
      +0.000     -0.000     +0.000
      +0.002     -0.016     -0.000
      -0.003     +0.067     -0.000
      -0.001     -0.001     +0.000
      +0.021     -0.395     -0.584
      +0.021     -0.395     +0.584
      +0.009     +0.010     -0.000
vibration  17
      -0.000     +0.000     +0.001
      +0.000     -0.000     -0.000
      +0.000     -0.000     +0.005
      -0.000     +0.000     +0.094
      -0.000     -0.000     -0.001
      +0.015     -0.421     -0.564
      -0.015     +0.421     -0.564
      +0.000     +0.000     +0.005
vibration  18
      -0.002     +0.002     +0.000
      +0.000     -0.000     +0.000
      +0.005     -0.004     -0.000
      -0.002     -0.001     -0.000
      -0.005     -0.063     +0.000
      -0.003     +0.003     +0.007
      -0.003     +0.003     -0.007
      +0.114     +0.991     -0.000
