[Molden Format]
[FR-COORD] # Coordinates in bohr
  C    -1.472591    +0.820169    -0.466933 
  O    -2.812638    -0.885245    +0.230441 
  H    -2.134770    +2.199192    -1.835247 
  C    +1.216650    +1.206856    +0.465378 
  O    +2.677570    -1.011063    -0.175304 
  H    +1.983000    +2.911297    -0.363991 
  H    +1.193328    +1.418032    +2.497913 
  H    +4.149508    -0.568191    -1.155221 
[FREQ] # Frequencies in cm^-1
 -317.3802
 -174.2777
  301.8091
  576.7872
  912.7455
  984.1540
 1127.0885
 1169.7133
 1336.4260
 1438.1731
 1549.0052
 1567.3790
 1671.9108
 1931.0326
 3160.8229
 3224.7736
 3267.8054
 3892.5666
[FR-NORM-COORD] # Displacements in bohr
vibration  1
      -0.012     +0.014     -0.004
      -0.006     +0.001     -0.018
      -0.030     +0.041     +0.030
      -0.008     -0.013     -0.005
      +0.055     +0.007     +0.072
      +0.016     +0.005     +0.055
      -0.016     -0.076     -0.003
      -0.518     -0.102     -0.836
vibration  2
      -0.053     +0.106     +0.124
      +0.094     -0.098     -0.096
      -0.295     +0.428     +0.565
      +0.036     +0.056     -0.110
      -0.074     -0.055     +0.074
      +0.040     -0.060     -0.349
      +0.163     +0.328     -0.130
      -0.023     -0.193     +0.089
vibration  3
      -0.113     -0.024     +0.097
      -0.290     +0.057     -0.035
      -0.156     +0.321     +0.459
      +0.036     -0.133     -0.126
      +0.334     +0.029     +0.039
      -0.142     -0.118     -0.268
      +0.103     +0.076     -0.138
      +0.401     +0.220     +0.226
vibration  4
      +0.101     -0.132     +0.130
      -0.151     -0.030     -0.088
      +0.375     -0.275     -0.159
      +0.133     +0.120     +0.081
      -0.069     +0.035     -0.029
      -0.056     -0.003     -0.357
      +0.505     +0.439     +0.048
      -0.122     -0.108     -0.173
vibration  5
      +0.254     -0.081     +0.082
      +0.055     +0.087     -0.013
      +0.341     +0.202     +0.327
      -0.212     -0.190     -0.072
      -0.063     +0.085     +0.014
      -0.421     -0.231     -0.347
      -0.144     +0.196     -0.104
      -0.158     +0.321     -0.012
vibration  6
      +0.092     -0.128     -0.058
      -0.067     -0.002     +0.025
      -0.164     +0.280     +0.475
      +0.137     -0.000     -0.092
      -0.092     +0.116     +0.033
      +0.169     +0.214     +0.378
      -0.251     -0.382     -0.045
      +0.047     -0.391     +0.040
vibration  7
      +0.149     -0.103     +0.040
      -0.035     +0.026     -0.005
      -0.009     +0.149     +0.377
      -0.188     +0.326     -0.022
      +0.103     -0.224     -0.046
      -0.294     +0.506     +0.266
      -0.395     -0.083     +0.011
      +0.088     -0.085     -0.059
vibration  8
      +0.003     +0.078     +0.186
      +0.005     -0.014     -0.042
      +0.278     -0.392     -0.417
      -0.036     -0.013     -0.157
      +0.001     +0.029     +0.035
      -0.151     +0.223     +0.230
      +0.037     -0.499     -0.110
      +0.126     -0.341     +0.067
vibration  9
      -0.032     -0.007     -0.066
      +0.032     +0.024     +0.008
      -0.020     +0.134     +0.059
      -0.027     -0.026     +0.070
      +0.019     +0.024     -0.008
      -0.612     +0.148     -0.133
      +0.353     -0.036     +0.069
      +0.184     -0.620     -0.036
vibration  10
      +0.003     -0.024     -0.042
      +0.002     +0.009     +0.004
      -0.064     +0.060     +0.074
      -0.001     +0.027     -0.036
      -0.026     -0.026     +0.043
      -0.122     +0.122     +0.029
      +0.686     -0.450     +0.002
      -0.145     +0.498     +0.085
vibration  11
      -0.003     -0.006     -0.024
      -0.012     -0.030     +0.022
      +0.383     +0.254     +0.060
      -0.137     +0.045     +0.003
      +0.024     +0.034     -0.009
      +0.634     -0.328     -0.024
      +0.344     -0.142     +0.022
      +0.122     -0.311     -0.004
vibration  12
      +0.062     -0.027     +0.032
      +0.008     +0.056     -0.037
      -0.785     -0.449     +0.042
      -0.062     +0.001     +0.024
      +0.012     +0.019     -0.005
      +0.237     -0.193     -0.065
      +0.170     -0.072     +0.029
      +0.065     -0.171     -0.002
vibration  13
      -0.007     +0.002     +0.008
      +0.002     -0.000     -0.001
      +0.037     +0.025     -0.003
      +0.039     +0.059     +0.040
      -0.001     +0.006     +0.002
      -0.083     -0.256     -0.659
      -0.342     -0.600     +0.082
      -0.007     +0.016     +0.001
vibration  14
      +0.432     +0.479     -0.176
      -0.265     -0.335     +0.135
      -0.431     +0.040     -0.210
      -0.033     -0.030     +0.025
      +0.003     -0.001     -0.001
      -0.291     +0.003     -0.138
      +0.105     -0.013     +0.002
      +0.022     -0.045     +0.003
vibration  15
      -0.027     +0.055     -0.055
      -0.001     -0.001     +0.000
      +0.323     -0.651     +0.651
      -0.004     -0.014     +0.005
      +0.000     +0.000     +0.000
      +0.067     +0.167     -0.091
      -0.004     -0.002     +0.030
      -0.004     -0.001     +0.000
vibration  16
      -0.006     +0.009     -0.009
      +0.000     +0.000     -0.000
      +0.058     -0.105     +0.114
      +0.025     +0.054     +0.028
      -0.001     +0.000     +0.000
      -0.281     -0.601     +0.316
      +0.008     -0.043     -0.653
      +0.007     +0.002     -0.002
vibration  17
      -0.003     +0.007     -0.008
      -0.000     -0.001     +0.000
      +0.039     -0.074     +0.071
      +0.021     +0.039     -0.084
      -0.001     -0.001     +0.001
      -0.251     -0.529     +0.258
      +0.007     +0.070     +0.751
      +0.010     +0.010     -0.011
vibration  18
      -0.000     -0.000     +0.000
      +0.000     +0.000     -0.000
      +0.000     -0.000     +0.000
      +0.000     -0.004     +0.001
      -0.052     -0.012     +0.034
      +0.010     +0.009     -0.008
      -0.000     -0.003     -0.007
      +0.809     +0.229     -0.537
