[Molden Format]
[FR-COORD] # Coordinates in bohr
  C    +1.448361    +0.626757    +0.640040 
  O    +2.947061    -0.751483    -0.393501 
  H    +1.890458    +1.514034    +2.436013 
  C    -1.173293    +1.181533    -0.402471 
  O    -2.943829    -0.844081    +0.104035 
  H    -1.870727    +2.914960    +0.418886 
  H    -1.046709    +1.387708    -2.426588 
  H    -2.299519    -2.024937    +1.337021 
[FREQ] # Frequencies in cm^-1
 -376.4495
 -167.9825
  328.0518
  537.5651
  905.8233
 1049.6334
 1131.8849
 1170.0101
 1361.7754
 1399.6489
 1531.8521
 1555.4768
 1688.3518
 1918.4578
 3173.6570
 3245.8232
 3298.6522
 3876.8385
[FR-NORM-COORD] # Displacements in bohr
vibration  1
      +0.003     -0.013     -0.006
      +0.007     +0.004     -0.015
      +0.008     -0.025     +0.003
      -0.011     +0.012     +0.038
      +0.027     -0.038     -0.062
      +0.025     +0.014     +0.079
      -0.071     +0.032     +0.040
      -0.415     +0.535     +0.720
vibration  2
      +0.062     +0.163     -0.071
      -0.129     -0.144     +0.060
      +0.346     +0.588     -0.353
      -0.038     +0.074     +0.106
      +0.096     -0.081     -0.083
      -0.105     -0.051     +0.312
      -0.139     +0.313     +0.121
      +0.145     -0.105     -0.133
vibration  3
      -0.146     -0.036     +0.070
      -0.207     -0.023     -0.028
      -0.324     -0.509     +0.347
      +0.035     +0.138     -0.109
      +0.281     -0.037     +0.048
      -0.088     +0.132     -0.208
      +0.098     -0.010     -0.115
      +0.450     +0.138     +0.128
vibration  4
      +0.073     +0.090     +0.174
      -0.165     +0.044     -0.104
      +0.352     +0.226     +0.027
      +0.133     -0.124     +0.045
      -0.029     -0.002     -0.041
      -0.023     +0.016     -0.394
      +0.529     -0.463     +0.032
      -0.221     -0.041     +0.020
vibration  5
      +0.245     +0.072     +0.129
      +0.053     -0.079     -0.034
      +0.257     -0.397     +0.361
      -0.164     +0.218     -0.088
      -0.114     -0.125     +0.007
      -0.439     +0.227     -0.354
      -0.009     -0.114     -0.109
      +0.200     +0.079     +0.051
vibration  6
      +0.045     +0.170     -0.101
      -0.074     -0.003     +0.033
      -0.380     -0.491     +0.330
      +0.265     +0.024     -0.051
      -0.135     -0.113     +0.037
      +0.272     -0.162     +0.327
      -0.137     +0.297     -0.036
      -0.139     -0.105     +0.076
vibration  7
      -0.095     -0.144     +0.058
      +0.012     +0.040     -0.014
      +0.214     +0.546     -0.364
      +0.118     +0.154     -0.053
      -0.102     -0.118     +0.027
      +0.241     +0.151     +0.044
      +0.303     +0.221     -0.034
      +0.391     +0.193     +0.095
vibration  8
      +0.086     -0.012     +0.154
      -0.043     +0.018     -0.026
      +0.120     +0.179     +0.058
      -0.041     -0.127     -0.186
      +0.006     +0.052     +0.022
      +0.001     -0.405     +0.452
      -0.250     +0.581     -0.128
      +0.170     +0.204     +0.074
vibration  9
      -0.020     +0.040     -0.069
      +0.017     -0.017     +0.008
      -0.033     -0.178     +0.036
      -0.024     -0.060     +0.039
      -0.030     +0.020     -0.001
      -0.325     -0.189     +0.025
      +0.690     +0.236     +0.103
      +0.400     +0.319     +0.073
vibration  10
      +0.031     +0.028     -0.001
      -0.021     +0.007     +0.007
      -0.048     -0.080     +0.079
      -0.044     -0.061     +0.047
      -0.027     +0.001     -0.046
      +0.611     +0.237     +0.001
      -0.217     -0.233     +0.028
      +0.572     +0.337     -0.023
vibration  11
      -0.006     -0.018     +0.018
      +0.010     -0.010     -0.017
      -0.206     +0.153     -0.023
      +0.108     +0.012     +0.046
      -0.027     +0.027     -0.028
      -0.590     -0.257     -0.014
      -0.484     -0.321     -0.011
      +0.330     +0.237     -0.003
vibration  12
      +0.052     +0.016     +0.044
      +0.019     -0.045     -0.055
      -0.852     +0.434     +0.076
      -0.032     +0.008     +0.015
      +0.005     -0.006     +0.005
      +0.094     +0.086     -0.021
      +0.199     +0.070     +0.033
      -0.062     -0.045     +0.003
vibration  13
      -0.007     -0.003     +0.006
      +0.003     -0.002     -0.003
      +0.007     -0.007     -0.003
      +0.035     -0.062     +0.046
      -0.005     -0.006     +0.001
      -0.080     +0.255     -0.666
      -0.275     +0.628     +0.078
      +0.033     +0.018     +0.005
vibration  14
      +0.467     -0.388     -0.262
      -0.293     +0.266     +0.198
      -0.408     +0.028     -0.260
      -0.034     +0.024     +0.030
      +0.000     +0.003     +0.002
      -0.279     +0.013     -0.153
      +0.164     +0.020     +0.016
      +0.010     -0.005     -0.014
vibration  15
      -0.019     -0.036     -0.073
      -0.001     +0.001     +0.001
      +0.222     +0.423     +0.859
      -0.003     +0.011     +0.007
      -0.000     +0.000     -0.000
      +0.050     -0.139     -0.075
      -0.000     +0.004     +0.001
      +0.002     -0.003     +0.000
vibration  16
      +0.004     +0.004     +0.010
      +0.000     +0.000     -0.000
      -0.033     -0.054     -0.120
      -0.024     +0.061     -0.016
      +0.002     +0.000     +0.000
      +0.294     -0.690     -0.349
      -0.036     -0.034     +0.538
      -0.010     +0.004     -0.006
vibration  17
      -0.001     -0.004     -0.008
      -0.001     +0.000     +0.001
      +0.024     +0.039     +0.076
      +0.019     -0.030     -0.087
      -0.000     -0.000     +0.001
      -0.191     +0.441     +0.205
      -0.037     -0.078     +0.838
      -0.003     +0.001     -0.009
vibration  18
      -0.000     +0.000     -0.001
      +0.000     -0.000     +0.000
      -0.001     -0.000     +0.004
      +0.003     +0.001     +0.001
      +0.020     -0.043     +0.042
      +0.001     +0.005     +0.002
      +0.003     +0.001     -0.011
      -0.341     +0.654     -0.672
