[Molden Format]
[FR-COORD] # Coordinates in bohr
  C    +1.080186    +2.656123    +0.000026 
  C    +1.073564    +0.179928    +0.000009 
  H    -0.673225    +3.653267    +0.000046 
  C    -1.281599    -1.386030    +0.000041 
  O    +3.127283    -1.417608    -0.000016 
  H    +2.792508    +3.739666    +0.000012 
  F    -3.407225    +0.186653    -0.000046 
  H    -1.314501    -2.572633    -1.659201 
  H    -1.314546    -2.572510    +1.659372 
  H    +4.722205    -0.533054    -0.000003 
[FREQ] # Frequencies in cm^-1
  138.4139
  295.4343
  408.6359
  456.0167
  538.1013
  566.5965
  827.7543
  937.1361
 1063.3801
 1069.6613
 1175.8080
 1178.8765
 1250.4778
 1368.8835
 1485.8742
 1568.3537
 1608.3466
 1681.7929
 1894.5620
 3253.0188
 3292.9406
 3349.0825
 3454.7411
 3904.1281
[FR-NORM-COORD] # Displacements in bohr
vibration  1
      +0.000     +0.000     +0.115
      -0.000     +0.000     +0.059
      +0.000     +0.000     +0.272
      -0.000     +0.000     +0.252
      -0.000     +0.000     -0.160
      +0.000     -0.000     -0.020
      +0.000     -0.000     -0.186
      +0.107     -0.330     +0.488
      -0.107     +0.330     +0.488
      -0.000     -0.000     -0.262
vibration  2
      +0.309     +0.170     +0.000
      +0.017     +0.170     -0.000
      +0.424     +0.390     +0.000
      +0.055     +0.103     -0.000
      -0.151     -0.058     +0.000
      +0.447     -0.045     +0.000
      -0.180     -0.244     +0.000
      +0.221     +0.083     +0.010
      +0.221     +0.083     -0.010
      -0.039     -0.263     +0.000
vibration  3
      -0.000     -0.000     +0.004
      +0.000     -0.000     -0.058
      -0.000     -0.000     +0.053
      +0.000     +0.000     +0.016
      +0.000     +0.000     -0.056
      -0.000     +0.000     -0.006
      +0.000     +0.000     +0.008
      -0.042     -0.081     +0.076
      +0.042     +0.081     +0.076
      +0.000     -0.000     +0.981
vibration  4
      -0.177     +0.128     -0.000
      +0.009     +0.117     +0.000
      -0.323     -0.122     +0.000
      +0.177     +0.025     -0.000
      -0.237     -0.169     -0.000
      -0.332     +0.363     -0.000
      +0.204     -0.015     +0.000
      +0.255     +0.027     -0.003
      +0.255     +0.027     +0.002
      -0.038     -0.535     -0.000
vibration  5
      +0.000     +0.000     -0.087
      -0.000     -0.000     +0.315
      +0.000     +0.000     -0.006
      -0.000     -0.000     +0.011
      -0.000     +0.000     -0.102
      +0.000     -0.000     -0.591
      +0.000     +0.000     -0.021
      +0.239     +0.344     -0.245
      -0.239     -0.344     -0.244
      -0.000     +0.000     +0.249
vibration  6
      +0.088     -0.017     +0.000
      -0.206     -0.012     -0.000
      +0.350     +0.427     +0.000
      -0.013     -0.171     +0.000
      -0.160     +0.152     +0.000
      +0.378     -0.460     +0.000
      +0.191     +0.004     +0.000
      +0.001     -0.164     -0.008
      +0.001     -0.164     +0.008
      -0.227     +0.266     -0.000
vibration  7
      -0.000     -0.000     +0.024
      -0.000     -0.000     -0.081
      +0.000     -0.000     +0.742
      +0.000     +0.000     -0.008
      +0.000     -0.000     +0.055
      -0.000     +0.000     -0.659
      -0.000     +0.000     -0.004
      +0.007     +0.031     -0.033
      -0.007     -0.031     -0.033
      -0.000     +0.000     -0.039
vibration  8
      -0.028     -0.285     -0.000
      -0.032     -0.135     +0.000
      -0.013     -0.286     -0.000
      +0.202     +0.330     -0.000
      -0.115     +0.099     -0.000
      +0.017     -0.375     -0.000
      -0.012     -0.039     +0.000
      +0.300     +0.289     +0.026
      +0.300     +0.289     -0.026
      -0.238     +0.310     +0.000
vibration  9
      +0.162     -0.050     +0.000
      +0.125     -0.019     -0.000
      -0.209     -0.696     -0.000
      -0.052     -0.078     -0.000
      -0.133     +0.125     +0.000
      -0.233     +0.546     -0.000
      +0.000     +0.005     +0.000
      -0.097     -0.069     -0.006
      -0.097     -0.069     +0.006
      -0.052     -0.043     -0.000
vibration  10
      +0.000     -0.000     -0.159
      +0.000     -0.000     +0.022
      -0.000     -0.000     +0.682
      -0.000     -0.000     +0.043
      -0.000     +0.000     +0.000
      -0.000     +0.000     +0.679
      +0.000     +0.000     -0.009
      +0.058     +0.130     -0.053
      -0.058     -0.130     -0.053
      -0.000     -0.000     +0.018
vibration  11
      +0.053     +0.042     +0.000
      -0.069     -0.010     -0.000
      -0.052     -0.113     -0.000
      -0.303     +0.253     -0.000
      +0.059     -0.068     -0.000
      -0.143     +0.347     +0.000
      +0.213     -0.179     +0.000
      -0.370     +0.206     +0.029
      -0.370     +0.206     -0.029
      -0.207     +0.436     +0.000
vibration  12
      +0.000     -0.000     +0.051
      -0.000     +0.000     -0.139
      -0.000     -0.000     -0.251
      +0.000     +0.000     +0.204
      +0.000     -0.000     +0.009
      -0.000     +0.000     +0.011
      -0.000     +0.000     -0.044
      +0.003     +0.614     -0.242
      -0.003     -0.614     -0.242
      -0.000     +0.000     +0.027
vibration  13
      -0.071     -0.042     +0.000
      +0.116     -0.001     -0.000
      +0.073     +0.189     -0.000
      -0.076     +0.046     +0.000
      -0.029     +0.097     +0.000
      +0.120     -0.338     -0.000
      +0.034     -0.041     -0.000
      -0.206     +0.041     +0.006
      -0.206     +0.041     -0.006
      +0.409     -0.730     -0.000
vibration  14
      -0.000     +0.000     -0.011
      +0.000     -0.000     +0.062
      +0.000     +0.000     +0.061
      -0.000     +0.000     +0.008
      -0.000     -0.000     -0.005
      -0.000     +0.000     -0.037
      +0.000     -0.000     -0.034
      -0.700     +0.064     -0.009
      +0.700     -0.064     -0.009
      -0.000     +0.000     -0.007
vibration  15
      +0.067     -0.040     -0.000
      -0.205     +0.040     +0.000
      -0.114     -0.350     +0.000
      -0.071     +0.014     -0.000
      +0.074     +0.024     -0.000
      -0.038     +0.084     -0.000
      +0.012     +0.011     -0.000
      +0.439     +0.022     -0.015
      +0.439     +0.022     +0.015
      +0.362     -0.525     -0.000
vibration  16
      -0.047     -0.015     +0.000
      +0.148     -0.022     -0.000
      +0.113     +0.260     -0.000
      -0.174     -0.009     -0.000
      -0.032     -0.002     -0.000
      -0.031     -0.016     -0.000
      +0.009     +0.013     -0.000
      +0.630     -0.059     +0.007
      +0.630     -0.059     -0.007
      -0.138     +0.203     +0.000
vibration  17
      +0.016     -0.031     -0.000
      -0.041     -0.105     -0.000
      +0.337     +0.549     -0.000
      +0.036     +0.026     -0.000
      -0.000     +0.025     +0.000
      -0.380     +0.608     +0.000
      -0.007     +0.003     -0.000
      -0.014     -0.067     +0.062
      -0.014     -0.067     -0.062
      +0.095     -0.167     -0.000
vibration  18
      +0.001     +0.020     +0.000
      -0.003     +0.001     -0.000
      -0.066     -0.095     -0.000
      +0.004     +0.080     -0.000
      +0.002     -0.001     -0.000
      +0.062     -0.079     -0.000
      -0.001     +0.005     -0.000
      -0.010     -0.554     +0.422
      -0.010     -0.554     -0.422
      +0.003     -0.004     -0.000
vibration  19
      -0.009     -0.399     -0.000
      +0.021     +0.491     +0.000
      +0.427     +0.238     -0.000
      -0.017     -0.040     -0.000
      +0.021     -0.057     -0.000
      -0.438     +0.143     +0.000
      +0.008     +0.000     +0.000
      -0.163     -0.137     +0.076
      -0.163     -0.137     -0.076
      -0.082     +0.184     +0.000
vibration  20
      +0.001     +0.001     +0.000
      -0.001     +0.001     -0.000
      +0.004     -0.004     -0.000
      +0.003     +0.066     -0.000
      +0.001     -0.000     +0.000
      -0.017     -0.011     -0.000
      -0.000     +0.000     +0.000
      -0.016     -0.390     -0.587
      -0.016     -0.390     +0.587
      -0.000     -0.003     -0.000
vibration  21
      -0.000     -0.000     -0.000
      +0.000     -0.000     -0.001
      -0.000     +0.000     +0.001
      +0.000     -0.000     -0.096
      -0.000     +0.000     +0.000
      +0.000     +0.000     -0.002
      +0.000     +0.000     +0.000
      +0.023     +0.412     +0.570
      -0.023     -0.412     +0.570
      -0.000     +0.000     +0.000
vibration  22
      +0.031     +0.067     -0.000
      +0.001     -0.009     -0.000
      +0.386     -0.208     -0.000
      -0.001     -0.001     -0.000
      -0.000     -0.000     -0.000
      -0.755     -0.482     +0.000
      -0.000     -0.000     -0.000
      +0.002     +0.009     +0.011
      +0.002     +0.009     -0.011
      -0.004     +0.002     +0.000
vibration  23
      -0.093     +0.021     +0.000
      -0.002     -0.002     +0.000
      +0.778     -0.455     -0.000
      -0.000     +0.001     +0.000
      +0.001     -0.001     -0.000
      +0.352     +0.234     -0.000
      -0.000     -0.001     -0.000
      +0.001     -0.001     -0.002
      +0.001     -0.001     +0.002
      +0.003     -0.002     +0.000
vibration  24
      +0.001     +0.000     -0.000
      -0.001     -0.003     -0.000
      -0.001     -0.001     +0.000
      +0.001     +0.000     -0.000
      -0.056     -0.028     -0.000
      -0.003     +0.001     -0.000
      +0.000     +0.000     +0.000
      +0.000     -0.001     -0.001
      +0.000     -0.001     +0.001
      +0.883     +0.466     +0.000
