[Molden Format]
[FR-COORD] # Coordinates in bohr
  C    +1.830128    +2.517410    +0.013229 
  C    +1.084744    +0.169893    +0.267534 
  H    +0.567966    +4.056115    +0.384468 
  C    -1.559613    -0.552670    +1.040903 
  O    +2.723808    -1.873541    -0.113024 
  H    +3.719306    +2.958681    -0.563823 
  F    -3.324282    +0.099170    -0.848702 
  H    -1.628370    -2.562987    +1.346570 
  H    -2.102816    +0.415998    +2.748751 
  H    +2.743955    -2.419525    -1.860257 
[FREQ] # Frequencies in cm^-1
 -233.3124
 -103.7717
  267.4189
  423.4389
  496.8586
  664.2791
  817.9832
  910.1689
 1049.3562
 1117.5649
 1129.6761
 1141.5345
 1291.7642
 1363.5021
 1450.7805
 1554.1609
 1596.0164
 1691.8604
 1890.7201
 3270.7139
 3325.5949
 3345.3509
 3428.4747
 3835.9000
[FR-NORM-COORD] # Displacements in bohr
vibration  1
      +0.012     -0.003     +0.031
      -0.004     +0.000     -0.002
      +0.042     +0.008     +0.091
      -0.008     +0.008     -0.007
      +0.054     +0.050     -0.020
      +0.012     -0.035     +0.014
      -0.007     -0.013     -0.013
      -0.021     +0.012     +0.029
      -0.009     +0.025     -0.016
      -0.760     -0.609     +0.172
vibration  2
      +0.128     +0.032     +0.122
      +0.000     +0.061     +0.040
      +0.237     +0.090     +0.248
      -0.010     +0.184     +0.104
      -0.140     -0.019     -0.136
      +0.130     -0.047     +0.068
      +0.031     -0.213     -0.079
      +0.003     +0.243     +0.487
      -0.068     +0.521     -0.109
      -0.062     +0.216     -0.207
vibration  3
      +0.277     +0.023     +0.075
      +0.032     +0.073     -0.154
      +0.395     +0.143     -0.025
      -0.002     +0.012     -0.187
      +0.061     +0.032     +0.099
      +0.414     -0.163     +0.376
      -0.317     -0.088     +0.076
      +0.154     +0.000     -0.231
      +0.093     -0.094     -0.094
      +0.298     -0.016     +0.117
vibration  4
      +0.102     +0.087     -0.062
      -0.030     +0.138     +0.064
      +0.246     +0.216     -0.115
      +0.050     -0.138     -0.021
      -0.204     +0.015     +0.031
      +0.130     -0.117     -0.136
      +0.081     -0.035     +0.011
      +0.306     -0.203     -0.404
      -0.112     -0.527     +0.149
      -0.315     +0.014     +0.029
vibration  5
      -0.101     +0.129     +0.076
      +0.086     +0.033     -0.165
      -0.401     -0.137     +0.193
      +0.149     +0.057     -0.084
      -0.113     -0.159     +0.061
      -0.160     +0.563     +0.225
      +0.020     -0.017     +0.035
      +0.200     +0.066     -0.028
      +0.244     +0.083     -0.069
      -0.054     -0.335     +0.116
vibration  6
      -0.010     -0.094     +0.057
      -0.256     -0.033     -0.353
      +0.253     +0.088     +0.169
      +0.003     -0.046     +0.059
      -0.061     +0.148     +0.057
      +0.165     -0.408     +0.389
      +0.168     +0.007     +0.049
      -0.027     -0.021     +0.219
      +0.201     +0.121     +0.030
      +0.332     -0.198     +0.178
vibration  7
      -0.009     -0.013     +0.001
      -0.000     -0.005     +0.025
      -0.222     -0.022     -0.685
      +0.009     +0.007     -0.010
      -0.008     +0.005     -0.026
      +0.184     -0.028     +0.624
      +0.016     -0.004     +0.017
      +0.007     +0.014     +0.041
      +0.035     +0.041     -0.022
      -0.182     +0.114     -0.063
vibration  8
      +0.088     +0.224     -0.027
      +0.012     +0.111     -0.153
      +0.020     +0.199     -0.096
      -0.285     -0.118     +0.239
      +0.126     -0.179     -0.033
      +0.159     +0.379     +0.294
      +0.028     +0.012     -0.037
      -0.232     -0.146     +0.090
      -0.384     -0.189     +0.252
      +0.124     -0.227     -0.025
vibration  9
      +0.143     -0.086     -0.027
      +0.137     -0.067     -0.041
      -0.401     -0.540     +0.027
      -0.058     -0.062     +0.077
      -0.112     +0.158     +0.010
      -0.024     +0.620     -0.003
      -0.018     +0.008     -0.027
      -0.135     -0.067     +0.057
      -0.055     -0.037     +0.063
      +0.077     -0.078     +0.102
vibration  10
      -0.028     -0.063     -0.116
      -0.019     -0.004     +0.018
      +0.023     -0.170     +0.500
      -0.018     +0.138     +0.027
      +0.025     -0.005     -0.002
      +0.122     +0.084     +0.513
      +0.013     -0.026     +0.003
      +0.227     +0.063     -0.393
      -0.192     -0.305     +0.223
      -0.028     +0.055     -0.023
vibration  11
      -0.033     +0.047     -0.127
      +0.058     -0.003     +0.055
      +0.227     +0.111     +0.489
      +0.012     -0.133     -0.043
      -0.028     +0.010     +0.012
      +0.164     -0.002     +0.466
      -0.010     +0.024     +0.006
      -0.246     -0.058     +0.388
      +0.147     +0.302     -0.246
      -0.090     +0.098     -0.016
vibration  12
      -0.067     -0.011     +0.006
      +0.001     -0.003     -0.034
      +0.085     +0.115     -0.048
      +0.318     -0.077     +0.351
      -0.013     +0.003     +0.000
      +0.072     -0.303     +0.235
      -0.197     +0.083     -0.243
      +0.476     -0.105     +0.158
      +0.241     -0.157     +0.358
      +0.047     -0.085     +0.031
vibration  13
      +0.070     -0.037     -0.002
      -0.121     +0.040     -0.049
      -0.135     -0.223     +0.115
      +0.024     -0.037     -0.000
      +0.057     -0.040     +0.056
      -0.049     +0.281     -0.124
      -0.004     +0.016     -0.009
      +0.177     -0.016     +0.161
      +0.046     +0.081     -0.063
      -0.538     +0.626     -0.187
vibration  14
      +0.022     -0.019     -0.012
      -0.063     +0.029     +0.047
      -0.084     -0.106     -0.001
      +0.015     -0.033     -0.028
      +0.008     -0.008     -0.032
      +0.005     +0.089     +0.038
      -0.003     +0.031     +0.016
      +0.586     -0.008     +0.309
      -0.523     +0.114     -0.292
      +0.248     -0.288     +0.068
vibration  15
      -0.082     -0.007     +0.037
      +0.201     -0.043     -0.127
      +0.063     +0.094     +0.012
      -0.045     +0.006     +0.019
      -0.023     +0.022     +0.044
      -0.002     -0.442     -0.060
      +0.003     +0.010     +0.017
      +0.282     -0.010     +0.079
      -0.604     -0.026     -0.144
      -0.319     +0.369     -0.079
vibration  16
      +0.017     +0.006     -0.002
      -0.049     -0.005     -0.017
      +0.023     +0.021     -0.026
      +0.149     +0.005     +0.027
      +0.005     -0.004     +0.002
      -0.002     +0.116     +0.021
      -0.009     -0.008     +0.016
      -0.667     +0.006     -0.198
      -0.651     -0.010     -0.223
      -0.009     +0.012     -0.004
vibration  17
      +0.018     +0.023     -0.007
      +0.007     +0.116     +0.003
      -0.529     -0.482     +0.173
      +0.004     -0.017     +0.000
      +0.007     -0.018     -0.006
      +0.143     -0.617     -0.042
      +0.001     -0.003     +0.001
      -0.177     -0.005     -0.006
      +0.036     +0.026     -0.008
      +0.054     -0.054     +0.005
vibration  18
      -0.003     -0.007     +0.000
      +0.002     +0.006     +0.003
      +0.008     +0.002     -0.001
      -0.024     -0.036     +0.069
      +0.001     +0.001     +0.000
      -0.005     +0.003     +0.007
      +0.001     -0.003     +0.006
      +0.173     -0.135     -0.674
      +0.084     +0.626     -0.302
      -0.008     -0.009     +0.003
vibration  19
      +0.125     +0.382     -0.043
      -0.129     -0.450     +0.034
      -0.483     -0.071     +0.160
      +0.018     +0.043     -0.002
      -0.011     +0.037     +0.012
      +0.352     -0.333     -0.112
      -0.000     +0.000     +0.000
      +0.264     +0.009     -0.096
      -0.049     -0.007     -0.009
      -0.078     +0.113     -0.014
vibration  20
      -0.000     -0.002     -0.000
      +0.001     +0.000     -0.001
      -0.011     +0.014     +0.004
      -0.022     -0.009     +0.064
      +0.000     +0.000     +0.000
      +0.013     +0.002     -0.003
      +0.000     -0.000     +0.000
      +0.013     +0.523     -0.060
      +0.226     -0.421     -0.699
      -0.001     +0.000     +0.001
vibration  21
      +0.000     -0.003     -0.000
      -0.001     +0.003     +0.000
      -0.018     +0.020     +0.006
      -0.008     +0.091     +0.026
      +0.000     -0.001     +0.000
      +0.011     +0.001     -0.004
      -0.000     -0.000     -0.000
      -0.039     -0.842     +0.122
      +0.145     -0.242     -0.430
      +0.002     -0.000     -0.001
vibration  22
      -0.019     -0.068     +0.006
      +0.003     +0.010     -0.001
      -0.451     +0.545     +0.133
      +0.001     -0.003     -0.002
      -0.000     +0.000     -0.000
      +0.645     +0.147     -0.196
      -0.000     +0.000     -0.000
      -0.001     +0.011     -0.001
      -0.010     +0.016     +0.027
      +0.001     -0.002     +0.001
vibration  23
      +0.090     -0.030     -0.027
      +0.002     -0.001     -0.001
      -0.420     +0.529     +0.124
      -0.000     -0.001     -0.000
      -0.001     +0.001     +0.000
      -0.669     -0.167     +0.204
      -0.000     +0.000     -0.000
      +0.000     +0.008     -0.000
      -0.004     +0.003     +0.007
      +0.000     +0.003     +0.000
vibration  24
      -0.000     +0.001     +0.000
      -0.001     +0.001     -0.001
      +0.001     +0.000     +0.002
      +0.000     +0.000     -0.000
      +0.003     -0.021     -0.059
      -0.000     -0.001     -0.002
      -0.000     +0.000     -0.000
      +0.000     -0.001     -0.001
      +0.000     +0.000     +0.001
      -0.029     +0.312     +0.947
