[Molden Format]
[FR-COORD] # Coordinates in bohr
  C    -3.512293    -1.031262    -0.000001 
  C    -1.230662    -0.065154    -0.000005 
  H    -3.802093    -3.035865    -0.000017 
  C    +1.135449    -1.688496    +0.000006 
  O    -0.796229    +2.490227    +0.000002 
  H    -5.138263    +0.168870    +0.000020 
  F    +3.238614    -0.033417    -0.000003 
  H    +1.241082    -2.847995    +1.670130 
  H    +1.241090    -2.848035    -1.670089 
  H    +0.998096    +2.830740    -0.000000 
[FREQ] # Frequencies in cm^-1
  -84.1405
  331.8265
  449.3977
  517.6305
  546.1053
  605.4082
  812.3782
  874.7606
 1052.0742
 1058.2949
 1144.7978
 1151.1566
 1353.0112
 1353.3053
 1443.9253
 1521.0520
 1610.2801
 1675.3213
 1912.3985
 3271.5814
 3321.9759
 3346.7946
 3435.4380
 3892.7454
[FR-NORM-COORD] # Displacements in bohr
vibration  1
      -0.000     +0.000     +0.175
      -0.000     +0.000     -0.013
      -0.000     +0.000     +0.253
      +0.000     -0.000     -0.233
      +0.000     +0.000     -0.143
      +0.000     +0.000     +0.244
      -0.000     +0.000     +0.190
      -0.084     -0.360     -0.480
      +0.084     +0.360     -0.480
      +0.000     -0.000     +0.001
vibration  2
      +0.113     -0.113     +0.000
      -0.002     +0.158     -0.000
      +0.420     -0.161     +0.000
      -0.039     +0.086     -0.000
      -0.268     +0.219     -0.000
      -0.078     -0.376     +0.000
      +0.200     -0.267     +0.000
      -0.201     +0.053     -0.010
      -0.201     +0.053     +0.010
      -0.301     +0.429     +0.000
vibration  3
      -0.121     +0.169     +0.000
      +0.004     -0.117     -0.000
      -0.572     +0.242     +0.000
      +0.138     -0.017     -0.000
      -0.187     -0.077     -0.000
      +0.165     +0.566     +0.000
      +0.159     -0.004     +0.000
      +0.171     -0.021     -0.004
      +0.171     -0.021     +0.004
      -0.226     +0.113     +0.000
vibration  4
      -0.000     +0.000     -0.015
      -0.000     -0.000     -0.002
      -0.000     -0.000     +0.092
      +0.000     +0.000     -0.011
      -0.000     -0.000     +0.061
      -0.000     +0.000     -0.071
      +0.000     -0.000     +0.021
      -0.012     -0.032     -0.033
      +0.012     +0.032     -0.033
      -0.000     +0.000     -0.989
vibration  5
      -0.000     -0.000     +0.101
      -0.000     +0.000     -0.349
      -0.000     -0.000     +0.044
      -0.000     +0.000     -0.019
      +0.000     -0.000     +0.079
      -0.000     -0.000     +0.632
      +0.000     +0.000     +0.040
      -0.222     +0.350     +0.240
      +0.222     -0.350     +0.240
      +0.000     -0.000     +0.012
vibration  6
      +0.272     +0.119     +0.000
      +0.269     -0.032     -0.000
      +0.065     +0.154     +0.000
      +0.039     -0.214     +0.000
      -0.154     +0.075     +0.000
      +0.426     +0.323     +0.000
      -0.253     -0.010     +0.000
      +0.033     -0.217     +0.004
      +0.033     -0.217     -0.004
      -0.239     +0.480     -0.000
vibration  7
      +0.000     +0.000     +0.003
      -0.000     -0.000     -0.073
      +0.000     -0.000     +0.788
      -0.000     +0.000     -0.003
      +0.000     -0.000     +0.044
      -0.000     +0.000     -0.585
      +0.000     -0.000     -0.008
      -0.022     -0.031     -0.021
      +0.022     +0.031     -0.021
      +0.000     -0.000     +0.161
vibration  8
      -0.182     -0.031     +0.000
      -0.120     +0.031     -0.000
      +0.064     -0.079     +0.000
      +0.228     -0.326     +0.000
      +0.027     +0.261     +0.000
      -0.401     -0.321     -0.000
      -0.001     +0.039     -0.000
      +0.364     -0.295     +0.018
      +0.364     -0.295     -0.018
      +0.088     -0.002     +0.000
vibration  9
      -0.000     +0.000     -0.160
      -0.000     +0.000     +0.031
      +0.000     +0.000     +0.591
      -0.000     -0.000     +0.044
      -0.000     -0.000     -0.006
      -0.000     -0.000     +0.752
      +0.000     +0.000     -0.007
      +0.078     -0.137     -0.056
      -0.078     +0.137     -0.056
      -0.000     +0.000     +0.025
vibration  10
      -0.009     -0.184     -0.000
      +0.015     -0.120     +0.000
      -0.736     -0.071     +0.000
      +0.002     +0.093     +0.000
      +0.051     +0.172     -0.000
      +0.412     +0.411     +0.000
      -0.036     -0.035     -0.000
      -0.003     +0.070     -0.014
      -0.003     +0.071     +0.014
      +0.101     -0.042     +0.000
vibration  11
      +0.084     -0.063     +0.000
      +0.015     -0.006     -0.000
      -0.224     -0.012     -0.000
      -0.379     -0.304     +0.000
      -0.018     +0.058     +0.000
      +0.294     +0.223     -0.000
      +0.229     +0.209     -0.000
      -0.402     -0.242     +0.039
      -0.402     -0.242     -0.039
      +0.035     -0.150     -0.000
vibration  12
      +0.000     -0.000     -0.056
      +0.000     -0.000     +0.145
      -0.000     -0.000     +0.240
      -0.000     -0.000     -0.199
      -0.000     +0.000     -0.012
      +0.000     +0.000     +0.022
      +0.000     +0.000     +0.040
      -0.106     +0.610     +0.235
      +0.106     -0.610     +0.235
      +0.000     -0.000     +0.004
vibration  13
      -0.000     +0.000     +0.010
      +0.000     -0.000     -0.045
      +0.000     -0.000     -0.011
      -0.000     +0.000     -0.024
      +0.000     +0.000     +0.002
      -0.000     -0.000     -0.020
      +0.000     +0.000     +0.037
      +0.695     +0.121     +0.009
      -0.695     -0.121     +0.009
      -0.000     +0.001     -0.005
vibration  14
      -0.098     +0.023     -0.000
      +0.101     -0.156     +0.000
      +0.042     -0.018     +0.000
      -0.064     +0.031     +0.000
      +0.061     +0.024     -0.000
      -0.318     -0.278     +0.000
      +0.017     +0.016     -0.000
      -0.079     -0.010     -0.024
      -0.077     -0.010     +0.024
      -0.124     +0.858     +0.000
vibration  15
      +0.015     +0.110     +0.000
      +0.048     -0.230     -0.000
      +0.458     +0.038     -0.000
      -0.086     +0.053     -0.000
      -0.046     +0.107     +0.000
      -0.147     -0.141     -0.000
      +0.008     -0.010     +0.000
      +0.203     +0.065     -0.012
      +0.203     +0.065     +0.012
      +0.144     -0.738     -0.000
vibration  16
      +0.015     -0.020     -0.000
      -0.038     +0.042     -0.000
      +0.039     -0.015     -0.000
      -0.127     +0.000     -0.000
      +0.014     -0.018     -0.000
      +0.122     +0.125     +0.000
      +0.007     -0.019     +0.000
      +0.663     +0.013     -0.037
      +0.663     +0.013     +0.037
      -0.042     +0.249     +0.000
vibration  17
      -0.048     -0.019     +0.000
      -0.081     -0.047     -0.000
      +0.690     -0.119     -0.000
      +0.030     +0.004     +0.000
      +0.022     +0.009     +0.000
      +0.370     +0.536     +0.000
      +0.002     +0.005     -0.000
      -0.118     -0.056     -0.027
      -0.118     -0.056     +0.027
      -0.023     +0.194     +0.000
vibration  18
      +0.009     +0.003     +0.000
      -0.001     +0.009     -0.000
      -0.050     +0.013     +0.000
      -0.002     +0.081     -0.000
      -0.003     -0.002     +0.000
      -0.023     -0.042     -0.000
      +0.002     +0.007     -0.000
      +0.001     -0.563     -0.419
      +0.001     -0.563     +0.419
      +0.008     -0.059     -0.000
vibration  19
      -0.352     -0.135     +0.000
      +0.446     +0.199     +0.000
      +0.315     -0.305     -0.000
      -0.049     +0.002     -0.000
      -0.056     -0.022     +0.000
      -0.038     +0.411     +0.000
      -0.009     -0.002     -0.000
      +0.093     -0.011     -0.020
      +0.093     -0.011     +0.020
      +0.067     -0.477     -0.000
vibration  20
      +0.002     +0.001     -0.000
      -0.001     -0.000     +0.000
      -0.003     -0.026     -0.000
      +0.007     -0.065     +0.000
      -0.000     +0.000     +0.000
      -0.010     +0.010     +0.000
      -0.000     -0.000     -0.000
      -0.034     +0.384     -0.591
      -0.034     +0.384     +0.591
      +0.002     +0.005     +0.000
vibration  21
      -0.000     -0.000     -0.000
      +0.000     -0.000     +0.000
      +0.000     +0.000     +0.002
      -0.000     +0.000     +0.097
      +0.000     -0.000     +0.000
      +0.000     -0.000     -0.000
      +0.000     -0.000     -0.000
      -0.043     +0.402     -0.576
      +0.043     -0.402     -0.576
      -0.000     -0.000     +0.002
vibration  22
      +0.057     +0.043     +0.000
      -0.010     -0.003     +0.000
      -0.119     -0.813     -0.000
      -0.000     +0.002     +0.000
      +0.000     -0.001     +0.000
      -0.451     +0.340     +0.000
      +0.000     -0.000     -0.000
      +0.002     -0.012     +0.017
      +0.002     -0.012     -0.017
      -0.002     +0.003     +0.000
vibration  23
      -0.050     +0.084     +0.000
      +0.001     +0.003     +0.000
      -0.092     -0.548     -0.000
      +0.001     +0.000     +0.000
      -0.000     -0.001     -0.000
      +0.672     -0.479     -0.000
      +0.000     -0.000     +0.000
      +0.002     -0.001     +0.002
      +0.002     -0.001     -0.002
      +0.002     -0.001     -0.000
vibration  24
      +0.001     +0.001     -0.000
      -0.002     -0.001     -0.000
      +0.001     +0.001     +0.000
      +0.001     +0.001     -0.000
      -0.060     -0.015     +0.000
      -0.001     +0.001     -0.000
      -0.001     +0.000     +0.000
      -0.002     -0.002     +0.001
      -0.002     -0.002     -0.001
      +0.974     +0.217     -0.000
