[Molden Format]
[FR-COORD] # Coordinates in bohr
  C    +3.038107    -1.670503    -0.387210 
  C    +1.153080    -0.167980    +0.185899 
  H    +2.786060    -3.676018    -0.480728 
  C    -1.435937    -1.065916    +0.870131 
  O    +1.385524    +2.450722    +0.368532 
  H    +4.888098    -0.940186    -0.764815 
  F    -3.212008    +0.031695    -0.785460 
  H    -1.571745    -3.092879    +0.743521 
  H    -1.892570    -0.455040    +2.760663 
  H    +1.543819    +3.254116    -1.264433 
[FREQ] # Frequencies in cm^-1
 -364.9931
  103.0700
  244.3018
  428.2839
  489.0477
  676.8819
  810.8199
  915.9856
 1052.0523
 1110.6901
 1127.0064
 1151.4765
 1281.9287
 1387.6966
 1468.4907
 1549.3348
 1605.8357
 1685.1719
 1888.8343
 3263.0972
 3315.5093
 3347.3800
 3427.6666
 3871.4370
[FR-NORM-COORD] # Displacements in bohr
vibration  1
      -0.004     -0.002     -0.020
      +0.008     +0.010     -0.000
      -0.030     +0.004     -0.049
      +0.006     +0.015     +0.009
      -0.072     +0.002     -0.002
      +0.011     -0.035     -0.026
      +0.001     -0.014     +0.007
      +0.023     +0.012     +0.028
      +0.009     +0.023     +0.007
      +0.988     -0.061     +0.075
vibration  2
      -0.133     -0.009     -0.163
      -0.012     +0.061     +0.052
      -0.240     +0.007     -0.222
      -0.022     +0.157     +0.136
      +0.154     +0.046     +0.136
      -0.129     -0.083     -0.287
      -0.001     -0.206     -0.139
      +0.018     +0.132     +0.515
      -0.089     +0.513     +0.003
      -0.008     +0.104     +0.148
vibration  3
      -0.052     -0.006     -0.155
      -0.028     -0.097     +0.142
      +0.026     -0.020     -0.065
      -0.002     -0.008     +0.212
      -0.299     -0.070     -0.035
      -0.156     +0.074     -0.510
      +0.346     +0.126     -0.084
      -0.174     -0.001     +0.312
      -0.103     +0.179     +0.123
      -0.379     -0.165     -0.088
vibration  4
      -0.188     -0.048     +0.012
      -0.018     +0.125     +0.093
      -0.460     -0.017     +0.076
      +0.045     -0.124     -0.032
      +0.043     +0.128     -0.042
      -0.114     -0.322     -0.137
      +0.087     -0.027     +0.016
      +0.256     -0.117     -0.397
      -0.145     -0.516     +0.049
      +0.039     +0.015     -0.100
vibration  5
      +0.018     +0.162     -0.044
      -0.065     -0.044     +0.182
      +0.355     +0.128     -0.141
      -0.139     -0.087     +0.056
      +0.158     -0.044     -0.082
      -0.142     +0.520     -0.152
      -0.018     +0.017     -0.024
      -0.095     -0.081     -0.118
      -0.315     -0.249     +0.064
      +0.245     -0.308     -0.203
vibration  6
      +0.154     -0.122     -0.088
      +0.294     -0.018     +0.341
      -0.128     -0.088     -0.188
      +0.009     +0.080     -0.067
      -0.103     +0.067     -0.022
      +0.179     -0.380     -0.475
      -0.185     +0.018     -0.040
      +0.023     +0.087     -0.167
      -0.191     -0.045     -0.078
      -0.195     -0.261     -0.198
vibration  7
      -0.032     +0.013     +0.001
      -0.014     -0.004     +0.051
      -0.174     +0.065     -0.705
      +0.034     +0.029     -0.026
      -0.013     -0.015     -0.026
      +0.091     +0.017     +0.615
      +0.019     -0.010     +0.016
      +0.042     +0.025     +0.043
      +0.082     +0.061     -0.020
      -0.056     -0.201     -0.122
vibration  8
      -0.146     +0.095     +0.042
      -0.046     +0.045     +0.113
      +0.029     +0.072     +0.337
      +0.236     +0.183     -0.141
      -0.021     -0.246     -0.008
      -0.309     +0.297     -0.339
      -0.026     -0.019     +0.015
      +0.446     +0.185     -0.247
      +0.165     +0.007     -0.103
      -0.047     -0.157     +0.046
vibration  9
      +0.059     +0.153     +0.016
      +0.060     +0.128     -0.031
      -0.654     +0.241     +0.001
      -0.040     -0.068     +0.094
      +0.007     -0.172     -0.032
      +0.300     -0.518     -0.039
      -0.027     +0.025     -0.035
      -0.052     -0.065     +0.075
      -0.091     -0.038     +0.072
      -0.028     +0.117     +0.124
vibration  10
      +0.021     +0.009     +0.151
      -0.023     -0.012     -0.019
      -0.176     +0.066     -0.540
      -0.007     -0.043     -0.074
      +0.011     +0.017     +0.001
      -0.164     +0.038     -0.693
      +0.015     -0.000     +0.025
      -0.128     -0.052     +0.194
      +0.112     +0.216     -0.127
      +0.013     +0.002     -0.009
vibration  11
      +0.029     -0.076     +0.073
      +0.003     +0.020     -0.069
      +0.162     -0.065     -0.478
      +0.024     +0.079     +0.158
      -0.014     -0.023     -0.016
      -0.104     +0.166     -0.148
      -0.031     +0.004     -0.057
      +0.284     +0.094     -0.382
      -0.161     -0.447     +0.278
      -0.022     +0.266     +0.133
vibration  12
      +0.074     +0.007     -0.012
      +0.027     +0.020     -0.013
      -0.070     +0.021     -0.024
      -0.297     +0.257     -0.156
      -0.010     -0.057     -0.017
      +0.130     -0.161     -0.078
      +0.166     -0.137     +0.157
      -0.213     +0.267     -0.524
      -0.435     -0.215     -0.032
      -0.062     +0.199     +0.113
vibration  13
      -0.046     -0.052     -0.012
      +0.072     +0.071     +0.068
      +0.200     -0.072     -0.093
      -0.021     -0.066     -0.043
      -0.004     -0.042     -0.065
      -0.116     +0.227     +0.159
      +0.002     +0.014     +0.020
      +0.065     -0.095     +0.267
      -0.208     +0.190     -0.170
      +0.018     +0.718     +0.337
vibration  14
      +0.031     -0.012     -0.001
      -0.033     +0.010     -0.046
      +0.062     -0.021     -0.016
      -0.008     -0.005     -0.011
      -0.004     -0.001     +0.025
      +0.063     -0.099     -0.030
      +0.003     +0.023     +0.022
      +0.639     -0.073     +0.240
      -0.613     +0.109     -0.206
      -0.022     -0.247     -0.106
vibration  15
      +0.074     +0.073     -0.022
      -0.184     -0.238     +0.097
      -0.244     +0.094     +0.024
      +0.065     +0.045     -0.014
      +0.022     +0.058     -0.054
      +0.238     -0.388     -0.027
      -0.009     +0.008     -0.006
      +0.296     +0.030     -0.008
      +0.005     -0.040     -0.008
      +0.053     +0.660     +0.263
vibration  16
      -0.003     +0.010     +0.005
      +0.006     -0.039     -0.031
      -0.194     +0.038     +0.017
      +0.137     -0.001     +0.030
      +0.001     +0.013     +0.001
      -0.051     +0.138     +0.049
      -0.010     -0.011     +0.015
      -0.585     +0.065     -0.205
      -0.686     +0.095     -0.210
      +0.015     +0.018     +0.003
vibration  17
      -0.023     +0.012     +0.005
      -0.075     +0.077     +0.025
      +0.679     -0.081     -0.168
      +0.043     -0.013     +0.005
      +0.004     -0.016     -0.002
      +0.211     -0.590     -0.080
      -0.000     -0.005     +0.003
      -0.232     +0.024     -0.128
      -0.037     +0.119     -0.056
      -0.007     -0.014     +0.001
vibration  18
      +0.004     -0.003     -0.001
      +0.007     -0.008     +0.005
      -0.072     +0.005     +0.009
      -0.037     -0.050     +0.058
      +0.000     +0.002     -0.002
      -0.020     +0.062     +0.014
      +0.002     -0.003     +0.005
      +0.236     -0.002     -0.667
      +0.122     +0.666     -0.156
      +0.003     +0.010     +0.003
vibration  19
      -0.314     +0.242     +0.095
      +0.353     -0.291     -0.113
      +0.461     +0.224     -0.119
      -0.053     +0.016     +0.023
      -0.009     +0.040     +0.003
      -0.121     -0.493     +0.019
      -0.006     +0.002     -0.001
      +0.213     -0.019     -0.013
      -0.138     -0.054     +0.010
      -0.005     +0.060     +0.005
vibration  20
      +0.001     -0.002     -0.001
      -0.001     -0.001     +0.000
      +0.003     +0.026     +0.003
      +0.020     +0.025     -0.059
      -0.000     -0.000     +0.000
      -0.012     -0.006     +0.000
      -0.000     +0.000     -0.000
      -0.032     -0.557     -0.054
      -0.188     +0.264     +0.758
      -0.000     +0.001     -0.001
vibration  21
      -0.003     +0.006     +0.001
      +0.002     -0.002     -0.001
      -0.009     -0.067     -0.003
      +0.005     -0.083     -0.047
      +0.000     +0.001     +0.000
      +0.024     +0.012     -0.005
      +0.000     +0.000     +0.000
      +0.062     +0.820     +0.058
      -0.136     +0.160     +0.511
      +0.001     +0.001     +0.000
vibration  22
      +0.055     -0.042     -0.016
      -0.008     +0.006     +0.002
      +0.092     +0.682     +0.031
      -0.000     -0.006     -0.002
      -0.000     +0.000     +0.000
      -0.655     -0.262     +0.133
      +0.000     +0.000     +0.000
      +0.004     +0.069     +0.005
      -0.002     +0.004     +0.011
      +0.000     -0.003     -0.001
vibration  23
      -0.059     -0.079     +0.008
      -0.002     -0.002     +0.000
      +0.081     +0.711     +0.035
      +0.000     -0.003     -0.001
      +0.000     +0.001     +0.000
      +0.634     +0.238     -0.130
      +0.000     +0.000     +0.000
      +0.004     +0.030     +0.001
      -0.002     +0.003     +0.008
      -0.002     +0.002     -0.000
vibration  24
      +0.000     +0.001     -0.000
      -0.000     +0.001     +0.002
      -0.001     +0.000     -0.002
      +0.000     +0.000     +0.000
      -0.006     -0.030     +0.054
      +0.000     -0.001     +0.002
      +0.000     +0.000     +0.000
      +0.001     +0.001     -0.000
      +0.001     +0.000     -0.001
      +0.091     +0.458     -0.882
