[Molden Format]
[FR-COORD] # Coordinates in bohr
  C    -3.428842    -1.126616    -0.256492 
  C    -1.208297    -0.081548    +0.078510 
  H    -3.640873    -3.138159    -0.334572 
  C    +1.185689    -1.560902    +0.491121 
  O    -0.883838    +2.494923    +0.239845 
  H    -5.085237    +0.016941    -0.442442 
  F    +3.198642    -0.066194    -0.459317 
  H    +1.535359    -1.840422    +2.480898 
  H    +1.157836    -3.345831    -0.480486 
  H    +0.858629    +2.929847    -0.099848 
[FREQ] # Frequencies in cm^-1
  100.7391
  304.5022
  441.4602
  503.3876
  512.9313
  642.9955
  818.6460
  899.5032
 1058.1239
 1070.6901
 1127.7105
 1152.9836
 1357.8643
 1358.8716
 1439.5827
 1528.0732
 1611.9677
 1676.7297
 1917.8415
 3261.9332
 3333.2260
 3351.4207
 3437.3740
 3882.9093
[FR-NORM-COORD] # Displacements in bohr
vibration  1
      -0.066     +0.016     +0.181
      -0.018     -0.014     -0.043
      -0.105     +0.017     +0.239
      -0.013     -0.088     -0.211
      +0.044     -0.024     -0.144
      -0.064     +0.038     +0.307
      +0.032     +0.097     +0.182
      -0.109     -0.492     -0.252
      +0.038     +0.107     -0.572
      +0.085     -0.088     -0.012
vibration  2
      -0.067     +0.068     -0.081
      +0.005     -0.140     +0.066
      -0.294     +0.090     -0.010
      +0.019     -0.067     +0.124
      +0.301     -0.182     -0.027
      +0.087     +0.262     -0.278
      -0.252     +0.247     -0.037
      +0.140     +0.064     +0.118
      +0.218     -0.086     +0.157
      +0.334     -0.433     -0.158
vibration  3
      +0.145     -0.150     -0.008
      +0.002     +0.124     +0.058
      +0.567     -0.200     +0.001
      -0.116     -0.017     -0.020
      +0.115     +0.109     -0.022
      -0.098     -0.525     -0.093
      -0.136     -0.017     +0.006
      -0.067     -0.200     -0.055
      -0.240     +0.067     -0.170
      +0.199     -0.038     +0.212
vibration  4
      +0.077     +0.067     -0.058
      +0.057     -0.008     +0.221
      -0.048     +0.079     +0.012
      +0.061     -0.111     +0.011
      -0.101     +0.045     -0.049
      +0.192     +0.181     -0.379
      -0.043     -0.005     -0.005
      +0.249     -0.462     -0.074
      -0.080     +0.050     -0.289
      -0.215     +0.168     -0.481
vibration  5
      +0.005     +0.034     -0.001
      +0.017     -0.011     +0.056
      -0.063     +0.046     -0.049
      +0.031     -0.022     +0.020
      -0.050     -0.007     -0.078
      +0.060     +0.106     -0.054
      -0.005     +0.002     -0.027
      +0.101     -0.059     +0.003
      -0.002     -0.006     -0.008
      +0.152     -0.031     +0.959
vibration  6
      -0.207     -0.094     -0.082
      -0.255     +0.027     +0.276
      -0.019     -0.117     -0.121
      +0.004     +0.120     -0.019
      +0.098     -0.005     -0.032
      -0.294     -0.274     -0.440
      +0.206     +0.006     -0.037
      +0.187     -0.068     -0.082
      -0.076     +0.210     -0.174
      +0.205     -0.418     -0.057
vibration  7
      +0.017     +0.009     -0.001
      +0.007     -0.010     +0.071
      +0.076     +0.035     -0.784
      -0.008     +0.015     -0.001
      -0.002     -0.011     -0.045
      -0.028     +0.040     +0.589
      -0.009     -0.002     +0.008
      -0.011     +0.050     +0.006
      -0.023     -0.014     +0.050
      -0.004     -0.052     -0.110
vibration  8
      +0.171     +0.043     +0.020
      +0.087     -0.002     +0.096
      -0.033     +0.070     +0.183
      -0.227     +0.281     -0.087
      -0.017     -0.257     -0.015
      +0.373     +0.289     -0.210
      +0.017     -0.027     +0.011
      -0.238     +0.123     -0.108
      -0.457     +0.336     -0.160
      -0.076     -0.054     -0.007
vibration  9
      -0.001     +0.160     -0.064
      -0.022     +0.112     -0.002
      +0.606     +0.076     +0.295
      +0.001     -0.081     +0.066
      -0.036     -0.153     -0.012
      -0.415     -0.402     +0.306
      +0.036     +0.032     -0.024
      +0.064     -0.116     +0.049
      -0.032     -0.039     -0.009
      -0.089     +0.021     -0.020
vibration  10
      -0.017     +0.052     +0.153
      -0.000     +0.029     -0.033
      +0.305     +0.045     -0.537
      +0.004     -0.036     -0.031
      -0.011     -0.042     +0.001
      -0.027     -0.114     -0.718
      +0.004     +0.007     +0.004
      -0.057     +0.128     +0.003
      +0.084     -0.111     +0.105
      -0.042     +0.052     -0.020
vibration  11
      -0.042     +0.070     -0.054
      -0.021     +0.000     +0.091
      +0.241     +0.023     +0.234
      +0.286     +0.195     -0.216
      +0.010     -0.042     -0.012
      -0.242     -0.215     +0.016
      -0.182     -0.153     +0.110
      +0.178     +0.451     -0.150
      +0.490     +0.009     +0.119
      -0.031     +0.112     +0.032
vibration  12
      -0.047     -0.012     +0.043
      +0.000     +0.023     -0.124
      -0.026     -0.004     -0.240
      +0.101     +0.127     +0.155
      +0.010     -0.036     +0.010
      -0.044     -0.015     -0.040
      -0.045     -0.050     -0.017
      +0.165     -0.600     +0.038
      -0.058     +0.480     -0.488
      -0.007     +0.009     -0.004
vibration  13
      +0.015     -0.024     +0.009
      -0.028     +0.081     -0.052
      -0.105     -0.005     -0.028
      +0.042     -0.021     -0.024
      -0.016     -0.022     +0.008
      +0.086     +0.085     +0.004
      -0.011     +0.006     +0.036
      +0.673     +0.132     -0.120
      -0.593     -0.124     +0.166
      +0.043     -0.272     -0.043
vibration  14
      +0.085     +0.005     +0.011
      -0.077     +0.086     -0.015
      +0.053     +0.022     +0.039
      +0.033     -0.022     +0.006
      -0.057     +0.000     +0.012
      +0.226     +0.207     +0.018
      -0.008     -0.015     -0.010
      -0.243     -0.007     +0.059
      +0.388     +0.024     -0.078
      +0.149     -0.791     -0.082
vibration  15
      -0.015     +0.117     +0.007
      +0.094     -0.258     -0.026
      +0.438     +0.055     +0.070
      -0.066     +0.061     +0.002
      -0.047     +0.109     +0.013
      -0.227     -0.231     -0.051
      +0.006     -0.002     +0.008
      +0.264     +0.012     -0.071
      -0.167     +0.093     -0.053
      +0.161     -0.661     -0.055
vibration  16
      -0.012     +0.008     -0.003
      +0.029     -0.008     +0.016
      -0.104     +0.011     +0.003
      +0.134     -0.003     -0.014
      -0.010     +0.004     +0.001
      -0.102     -0.125     -0.039
      -0.008     +0.018     -0.009
      -0.683     -0.040     +0.126
      -0.651     -0.042     +0.080
      +0.031     -0.159     -0.013
vibration  17
      +0.046     +0.020     +0.008
      +0.079     +0.048     +0.010
      -0.686     +0.093     -0.088
      -0.033     -0.008     +0.001
      -0.019     -0.009     +0.001
      -0.342     -0.544     -0.066
      -0.002     -0.005     +0.001
      +0.072     +0.100     -0.004
      +0.171     +0.043     -0.083
      +0.026     -0.171     -0.021
vibration  18
      -0.010     -0.005     -0.002
      -0.002     -0.007     +0.005
      +0.069     -0.015     +0.001
      +0.015     -0.074     +0.033
      +0.002     +0.002     -0.002
      +0.031     +0.059     +0.010
      -0.002     -0.005     +0.004
      -0.003     +0.696     +0.123
      -0.119     +0.302     -0.613
      -0.008     +0.052     +0.007
vibration  19
      +0.346     +0.150     +0.048
      -0.437     -0.214     -0.061
      -0.320     +0.297     -0.045
      +0.052     +0.001     +0.016
      +0.051     +0.024     -0.003
      +0.050     -0.414     +0.025
      +0.009     +0.003     -0.000
      +0.036     -0.019     +0.008
      -0.194     +0.019     -0.036
      -0.073     +0.438     +0.064
vibration  20
      -0.001     -0.001     -0.000
      +0.000     -0.000     -0.000
      +0.001     +0.017     +0.001
      -0.013     +0.039     -0.057
      +0.000     -0.000     +0.000
      +0.008     -0.007     -0.001
      +0.000     +0.000     -0.000
      +0.159     -0.109     +0.890
      -0.011     -0.346     -0.211
      -0.001     -0.003     -0.001
vibration  21
      +0.006     +0.006     +0.001
      -0.002     -0.001     -0.001
      -0.009     -0.093     -0.005
      -0.006     -0.063     -0.068
      +0.000     +0.001     -0.000
      -0.038     +0.029     -0.004
      +0.000     +0.000     +0.000
      +0.074     -0.062     +0.376
      +0.006     +0.796     +0.443
      -0.000     +0.003     -0.002
vibration  22
      -0.057     -0.040     -0.009
      +0.009     +0.004     +0.001
      +0.081     +0.779     +0.031
      -0.000     -0.007     -0.006
      -0.000     +0.001     +0.000
      +0.495     -0.348     +0.056
      -0.000     +0.000     +0.000
      +0.003     -0.003     +0.020
      +0.001     +0.088     +0.048
      +0.002     -0.002     -0.002
vibration  23
      +0.049     -0.085     +0.004
      -0.000     -0.003     -0.000
      +0.074     +0.597     +0.026
      -0.001     -0.001     -0.001
      +0.000     +0.001     +0.000
      -0.656     +0.437     -0.074
      -0.000     +0.000     +0.000
      +0.000     -0.001     +0.006
      -0.001     +0.017     +0.008
      -0.001     +0.001     +0.000
vibration  24
      -0.001     -0.001     -0.000
      +0.002     +0.000     -0.000
      -0.000     -0.001     +0.001
      -0.001     -0.001     +0.000
      +0.058     +0.018     -0.011
      +0.001     -0.001     -0.000
      +0.001     -0.000     -0.000
      +0.001     +0.001     -0.001
      +0.003     +0.002     -0.001
      -0.945     -0.267     +0.178
