[Molden Format]
[FR-COORD] # Coordinates in bohr
  C    -1.784455    +0.126624    +0.561115 
  C    -2.058000    -2.211049    -0.243684 
  H    -3.385270    +1.078440    +1.381234 
  H    -3.837697    -3.173145    -0.095642 
  H    -0.541852    -3.266141    -1.078048 
  C    +0.605895    +1.695076    +0.466837 
  C    +2.904579    +0.353885    -0.702234 
  H    +0.212446    +3.412207    -0.590322 
  H    +1.066993    +2.287764    +2.379185 
  H    +2.520759    -0.196133    -2.637337 
  H    +4.527652    +1.603630    -0.702534 
  H    +3.389813    -1.324374    +0.366712 
[FREQ] # Frequencies in cm^-1
  151.2887
  287.9988
  311.0838
  594.8789
  622.1084
  863.0023
  894.5143
 1051.8072
 1109.7187
 1144.2002
 1162.6245
 1240.7083
 1259.5334
 1438.5904
 1474.8046
 1508.1386
 1570.9210
 1615.5934
 1648.6666
 1673.1315
 1679.8309
 1859.2153
 3184.8306
 3201.3797
 3204.7972
 3259.4971
 3265.4500
 3303.2449
 3328.3423
 3395.9779
[FR-NORM-COORD] # Displacements in bohr
vibration  1
      +0.039     -0.051     +0.135
      -0.028     +0.037     -0.098
      +0.139     -0.182     +0.483
      +0.018     -0.024     +0.065
      -0.131     +0.171     -0.454
      -0.028     +0.036     -0.097
      +0.019     -0.025     +0.066
      -0.113     -0.117     -0.317
      -0.031     +0.305     -0.181
      +0.071     -0.237     +0.117
      -0.013     +0.016     -0.044
      +0.035     +0.098     +0.253
vibration  2
      +0.005     -0.006     +0.019
      +0.010     -0.009     +0.024
      +0.026     -0.036     +0.094
      +0.035     -0.043     +0.107
      -0.013     +0.026     -0.062
      -0.015     +0.021     -0.052
      -0.001     -0.004     +0.005
      -0.022     -0.013     -0.104
      -0.027     +0.079     -0.068
      +0.230     +0.458     -0.172
      +0.154     -0.205     +0.533
      -0.370     -0.292     -0.280
vibration  3
      +0.006     -0.065     -0.026
      -0.248     -0.060     +0.049
      +0.090     +0.062     +0.000
      -0.345     +0.132     +0.153
      -0.380     -0.235     +0.018
      +0.032     -0.081     -0.042
      +0.205     +0.162     +0.002
      -0.034     -0.077     -0.013
      -0.038     -0.069     -0.027
      +0.362     +0.197     -0.040
      +0.064     +0.348     +0.133
      +0.344     +0.174     -0.040
vibration  4
      -0.207     +0.078     +0.089
      +0.060     +0.094     +0.018
      -0.180     +0.110     +0.095
      +0.243     -0.262     -0.167
      +0.336     +0.449     +0.072
      -0.057     -0.160     -0.044
      +0.116     -0.035     -0.047
      +0.040     -0.139     -0.049
      +0.033     -0.132     -0.073
      +0.329     +0.012     -0.102
      -0.081     +0.227     +0.110
      +0.333     +0.006     -0.082
vibration  5
      +0.031     -0.041     +0.108
      -0.009     +0.012     -0.030
      -0.084     +0.110     -0.290
      -0.163     +0.214     -0.567
      +0.103     -0.134     +0.356
      +0.006     -0.009     +0.022
      -0.004     +0.005     -0.014
      -0.162     -0.224     -0.276
      +0.051     +0.371     -0.112
      -0.060     +0.094     -0.028
      -0.001     +0.002     -0.003
      +0.023     -0.044     -0.104
vibration  6
      +0.210     +0.058     -0.038
      +0.078     +0.117     +0.022
      +0.283     +0.155     -0.023
      -0.043     +0.371     +0.153
      -0.081     -0.081     -0.007
      -0.085     -0.256     -0.072
      -0.182     +0.035     +0.066
      -0.077     -0.230     -0.043
      -0.087     -0.216     -0.079
      +0.089     +0.093     -0.004
      -0.429     +0.357     +0.259
      +0.095     +0.086     +0.019
vibration  7
      -0.021     +0.027     -0.071
      -0.000     +0.000     -0.001
      +0.017     -0.022     +0.059
      +0.080     -0.105     +0.277
      -0.037     +0.049     -0.130
      +0.024     -0.032     +0.084
      +0.011     -0.015     +0.039
      +0.135     -0.265     -0.351
      -0.234     +0.396     +0.005
      -0.356     +0.270     +0.025
      -0.053     +0.069     -0.182
      +0.272     -0.159     -0.318
vibration  8
      -0.055     -0.020     +0.008
      -0.087     -0.066     +0.000
      +0.117     +0.226     +0.052
      +0.123     -0.483     -0.218
      +0.203     +0.291     +0.052
      +0.250     -0.050     -0.091
      -0.162     +0.116     +0.090
      +0.329     -0.046     -0.110
      +0.328     -0.045     -0.113
      -0.169     +0.112     +0.095
      -0.130     +0.074     +0.065
      -0.171     +0.115     +0.089
vibration  9
      +0.005     -0.006     +0.016
      -0.039     +0.052     -0.136
      +0.064     -0.084     +0.221
      +0.136     -0.179     +0.473
      +0.207     -0.272     +0.720
      +0.001     -0.002     +0.005
      -0.002     +0.003     -0.008
      -0.033     -0.009     +0.005
      +0.032     +0.010     -0.007
      +0.029     -0.024     -0.004
      +0.009     -0.012     +0.032
      -0.023     +0.016     +0.026
vibration  10
      +0.052     -0.005     -0.017
      -0.037     +0.029     +0.022
      +0.240     +0.264     +0.033
      +0.080     -0.188     -0.096
      +0.151     +0.268     +0.058
      -0.043     -0.072     -0.015
      +0.063     +0.067     +0.007
      -0.332     -0.080     +0.076
      -0.339     -0.074     +0.058
      -0.271     -0.061     +0.105
      +0.351     -0.325     -0.224
      -0.293     -0.032     +0.023
vibration  11
      +0.019     -0.025     +0.066
      -0.013     +0.017     -0.045
      -0.193     +0.255     -0.673
      +0.136     -0.179     +0.471
      -0.072     +0.096     -0.253
      +0.009     -0.012     +0.033
      -0.006     +0.008     -0.021
      -0.153     -0.071     -0.003
      +0.141     +0.083     -0.030
      +0.086     -0.070     -0.014
      +0.014     -0.018     +0.046
      -0.070     +0.047     +0.075
vibration  12
      +0.032     -0.043     +0.114
      -0.009     +0.012     -0.032
      -0.077     +0.100     -0.266
      +0.008     -0.009     +0.029
      +0.016     -0.023     +0.059
      -0.042     +0.055     -0.146
      +0.028     -0.037     +0.098
      +0.321     +0.302     +0.137
      -0.267     -0.374     +0.050
      -0.329     +0.276     +0.068
      -0.058     +0.076     -0.201
      +0.267     -0.196     -0.281
vibration  13
      -0.129     +0.011     +0.041
      +0.109     +0.031     -0.020
      -0.298     -0.239     -0.004
      -0.103     +0.440     +0.196
      -0.207     -0.358     -0.076
      +0.055     -0.105     -0.055
      +0.026     +0.110     +0.034
      +0.097     -0.094     -0.047
      +0.090     -0.082     -0.074
      -0.274     -0.024     +0.128
      +0.270     -0.220     -0.161
      -0.302     +0.012     +0.035
vibration  14
      +0.013     -0.017     +0.044
      -0.002     +0.002     -0.006
      -0.017     +0.023     -0.060
      -0.005     +0.006     -0.017
      +0.004     -0.006     +0.014
      +0.009     -0.012     +0.032
      -0.024     +0.031     -0.081
      +0.617     -0.015     -0.194
      -0.623     +0.021     +0.177
      +0.170     -0.175     -0.058
      +0.035     -0.046     +0.120
      -0.144     +0.141     +0.151
vibration  15
      +0.082     -0.042     -0.040
      -0.071     +0.079     +0.050
      -0.390     -0.739     -0.167
      -0.008     -0.014     -0.003
      +0.173     +0.404     +0.103
      -0.013     -0.015     -0.002
      +0.007     +0.017     +0.005
      +0.113     -0.033     -0.065
      +0.121     -0.045     -0.032
      -0.052     -0.007     +0.023
      +0.036     -0.025     -0.020
      -0.058     -0.000     +0.005
vibration  16
      -0.043     -0.029     +0.001
      +0.014     +0.037     +0.010
      -0.145     -0.175     -0.024
      -0.036     +0.143     +0.064
      +0.028     +0.065     +0.016
      +0.176     +0.025     -0.041
      -0.048     -0.041     -0.002
      -0.616     -0.037     +0.150
      -0.608     -0.045     +0.171
      +0.138     +0.069     -0.067
      -0.102     +0.038     +0.044
      +0.163     +0.037     +0.019
vibration  17
      -0.006     -0.021     -0.006
      +0.002     -0.002     -0.001
      +0.037     +0.037     +0.003
      -0.043     +0.095     +0.048
      +0.058     +0.077     +0.012
      -0.015     +0.004     +0.006
      -0.099     +0.060     +0.051
      +0.057     +0.005     -0.015
      +0.058     +0.005     -0.014
      +0.517     -0.208     -0.015
      +0.298     -0.424     -0.246
      +0.416     -0.078     -0.363
vibration  18
      +0.046     +0.103     +0.026
      -0.015     +0.021     +0.012
      -0.189     -0.231     -0.033
      +0.250     -0.548     -0.279
      -0.352     -0.440     -0.065
      +0.008     -0.037     -0.016
      -0.010     +0.019     +0.010
      -0.065     +0.065     +0.164
      -0.121     +0.140     -0.033
      +0.080     -0.147     +0.036
      +0.020     -0.024     -0.014
      +0.027     -0.077     -0.151
vibration  19
      +0.005     +0.016     +0.005
      +0.002     +0.018     +0.006
      -0.014     -0.005     +0.002
      +0.075     -0.138     -0.073
      -0.112     -0.136     -0.019
      -0.001     +0.068     +0.026
      -0.002     +0.006     +0.003
      -0.140     -0.358     -0.563
      +0.081     -0.647     +0.200
      +0.016     +0.013     -0.003
      +0.025     -0.021     -0.013
      +0.020     +0.012     +0.002
vibration  20
      +0.000     -0.000     +0.000
      +0.000     -0.000     +0.001
      +0.000     -0.001     +0.001
      -0.000     +0.000     -0.001
      -0.004     +0.005     -0.014
      -0.005     +0.005     -0.015
      -0.014     +0.017     -0.047
      -0.032     +0.021     +0.016
      +0.032     -0.017     -0.020
      -0.440     -0.189     +0.120
      +0.187     -0.243     +0.639
      +0.473     +0.155     -0.009
vibration  21
      -0.009     -0.017     -0.004
      +0.002     -0.004     -0.002
      +0.027     +0.034     +0.005
      -0.039     +0.085     +0.043
      +0.060     +0.075     +0.011
      +0.020     +0.023     +0.003
      +0.030     +0.042     +0.007
      -0.047     -0.011     -0.028
      -0.029     -0.034     +0.033
      -0.041     -0.607     +0.193
      -0.199     +0.297     +0.175
      -0.227     -0.354     -0.475
vibration  22
      +0.094     +0.347     +0.104
      -0.050     -0.321     -0.107
      -0.344     -0.203     +0.022
      -0.366     +0.218     +0.187
      +0.461     +0.268     -0.031
      -0.004     -0.034     -0.012
      +0.003     +0.008     +0.002
      -0.159     -0.098     -0.060
      -0.127     -0.140     +0.051
      +0.003     -0.001     +0.004
      +0.033     -0.037     -0.023
      +0.001     +0.003     -0.005
vibration  23
      +0.005     -0.002     -0.002
      +0.000     +0.000     +0.000
      -0.048     +0.035     +0.027
      -0.006     -0.002     +0.001
      +0.007     -0.005     -0.004
      +0.002     +0.062     +0.023
      -0.009     -0.006     +0.000
      +0.135     -0.568     +0.379
      -0.163     -0.178     -0.655
      -0.003     -0.005     -0.007
      +0.106     +0.089     +0.003
      -0.000     -0.010     +0.003
vibration  24
      -0.001     +0.001     +0.001
      +0.001     -0.001     -0.001
      +0.012     -0.010     -0.007
      +0.005     +0.001     -0.001
      -0.015     +0.010     +0.008
      +0.001     -0.006     -0.002
      -0.038     +0.022     +0.019
      -0.013     +0.053     -0.034
      +0.012     +0.016     +0.054
      -0.123     -0.149     -0.543
      +0.439     +0.357     +0.007
      +0.125     -0.473     +0.313
vibration  25
      +0.000     -0.000     +0.001
      +0.000     -0.000     +0.000
      -0.000     +0.000     -0.001
      +0.000     -0.000     +0.001
      +0.000     -0.000     +0.000
      +0.023     -0.031     +0.081
      -0.005     +0.007     -0.018
      -0.126     +0.580     -0.347
      -0.157     -0.207     -0.636
      +0.034     +0.044     +0.147
      -0.005     -0.000     -0.006
      +0.031     -0.125     +0.079
vibration  26
      -0.001     +0.001     +0.001
      -0.001     +0.001     +0.001
      +0.017     -0.010     -0.009
      -0.001     +0.001     +0.001
      +0.019     -0.011     -0.010
      -0.001     -0.008     -0.002
      -0.050     -0.076     -0.013
      -0.017     +0.065     -0.041
      +0.016     +0.020     +0.070
      +0.067     +0.087     +0.381
      +0.639     +0.494     +0.001
      -0.110     +0.324     -0.227
vibration  27
      -0.000     -0.000     +0.000
      -0.000     -0.000     +0.000
      +0.000     -0.000     -0.000
      -0.000     +0.000     -0.000
      +0.000     -0.000     -0.001
      -0.005     +0.007     -0.019
      -0.024     +0.030     -0.082
      +0.032     -0.128     +0.076
      +0.031     +0.046     +0.144
      +0.136     +0.197     +0.649
      -0.001     +0.013     -0.022
      +0.152     -0.566     +0.349
vibration  28
      +0.059     -0.037     -0.031
      -0.016     -0.020     -0.003
      -0.711     +0.426     +0.365
      +0.330     +0.173     -0.030
      -0.132     +0.085     +0.070
      -0.000     -0.004     -0.002
      -0.002     -0.001     +0.000
      -0.005     +0.036     -0.022
      +0.012     +0.012     +0.039
      +0.000     +0.001     +0.004
      +0.014     +0.010     -0.000
      -0.001     +0.003     -0.002
vibration  29
      -0.023     +0.025     +0.016
      -0.011     -0.063     -0.021
      +0.294     -0.178     -0.152
      +0.589     +0.309     -0.053
      -0.485     +0.322     +0.261
      +0.001     +0.003     +0.001
      +0.001     -0.001     -0.001
      +0.002     -0.022     +0.013
      -0.008     -0.009     -0.023
      +0.004     +0.005     +0.015
      -0.002     -0.000     +0.001
      -0.003     +0.013     -0.008
vibration  30
      +0.010     -0.005     -0.005
      +0.092     -0.007     -0.029
      -0.097     +0.061     +0.051
      -0.558     -0.312     +0.043
      -0.558     +0.395     +0.310
      -0.000     -0.001     -0.000
      -0.001     -0.002     -0.000
      -0.001     +0.004     -0.002
      +0.001     +0.001     +0.004
      +0.003     +0.004     +0.014
      +0.007     +0.007     +0.001
      -0.003     +0.012     -0.008
