[Molden Format]
[FR-COORD] # Coordinates in bohr
  C    -1.048642    -1.641156    +0.412961 
  O    -1.817829    -2.713251    -1.445448 
  H    -1.225864    -2.425025    +2.292711 
  C    +0.312801    +0.873555    +0.338824 
  O    -0.674458    +2.894420    +0.401368 
  O    +2.890104    +0.538639    +0.411053 
  H    +3.673749    +0.140840    -1.197491 
[FREQ] # Frequencies in cm^-1
 -440.0371
 -149.4843
  303.4950
  319.9712
  573.5572
  779.4149
  934.7042
 1082.7246
 1159.0477
 1308.7426
 1529.5880
 1904.6474
 2001.8704
 3222.0589
 3845.9774
[FR-NORM-COORD] # Displacements in bohr
vibration  1
      +0.009     -0.006     +0.016
      -0.002     +0.013     +0.009
      +0.050     -0.037     +0.005
      -0.011     +0.001     +0.009
      +0.002     +0.009     -0.032
      -0.010     -0.077     +0.014
      +0.144     +0.969     -0.170
vibration  2
      -0.193     +0.107     +0.041
      +0.223     -0.098     -0.015
      -0.789     +0.398     +0.105
      -0.028     +0.018     +0.018
      +0.040     +0.051     +0.105
      -0.041     -0.075     -0.128
      -0.119     +0.059     -0.200
vibration  3
      +0.140     -0.024     -0.077
      +0.058     -0.127     +0.020
      +0.793     -0.221     -0.094
      -0.148     +0.138     -0.053
      +0.079     +0.240     +0.069
      -0.169     -0.169     +0.012
      -0.181     -0.254     +0.028
vibration  4
      -0.076     +0.053     -0.237
      -0.208     -0.329     +0.042
      -0.196     +0.456     -0.067
      +0.094     +0.051     -0.214
      +0.086     +0.041     +0.176
      +0.095     +0.155     +0.111
      +0.411     +0.422     +0.204
vibration  5
      -0.168     -0.317     +0.083
      -0.054     -0.106     -0.114
      -0.157     -0.634     -0.056
      -0.062     -0.030     +0.264
      +0.281     +0.149     -0.092
      -0.026     +0.243     -0.041
      -0.298     +0.212     -0.168
vibration  6
      -0.032     +0.000     -0.113
      -0.082     -0.147     -0.045
      -0.061     -0.065     -0.138
      +0.109     +0.246     +0.330
      -0.262     +0.132     -0.078
      +0.324     -0.156     -0.003
      -0.539     -0.156     -0.460
vibration  7
      +0.128     +0.250     -0.198
      -0.028     -0.058     +0.041
      +0.127     +0.371     -0.142
      +0.024     -0.114     +0.252
      +0.101     -0.127     -0.059
      -0.151     +0.053     +0.004
      -0.690     +0.112     -0.284
vibration  8
      -0.225     +0.148     +0.013
      +0.058     -0.020     +0.002
      +0.866     -0.357     -0.096
      -0.076     -0.061     -0.027
      +0.016     -0.049     +0.005
      +0.102     +0.024     +0.015
      -0.071     +0.024     -0.081
vibration  9
      +0.057     -0.052     +0.012
      +0.001     +0.037     +0.009
      -0.186     +0.224     +0.101
      -0.148     -0.056     -0.133
      +0.026     +0.014     +0.019
      +0.105     +0.012     +0.083
      -0.810     +0.058     -0.419
vibration  10
      -0.100     -0.049     +0.073
      +0.015     -0.002     -0.021
      +0.186     -0.251     +0.029
      +0.337     +0.142     -0.132
      -0.013     -0.058     +0.017
      -0.141     +0.001     +0.065
      -0.784     +0.082     -0.288
vibration  11
      +0.031     +0.062     -0.040
      +0.009     +0.002     +0.075
      -0.448     -0.761     -0.453
      -0.013     -0.001     -0.037
      +0.002     +0.001     +0.004
      +0.006     -0.000     +0.007
      -0.041     -0.000     -0.020
vibration  12
      -0.261     -0.369     -0.524
      +0.170     +0.236     +0.390
      +0.225     +0.420     -0.179
      +0.088     -0.089     +0.041
      -0.039     +0.079     -0.007
      -0.015     +0.002     -0.009
      +0.004     +0.006     +0.006
vibration  13
      +0.041     +0.117     +0.091
      -0.021     -0.042     -0.065
      +0.094     -0.104     -0.004
      +0.327     -0.727     -0.039
      -0.220     +0.487     +0.017
      -0.032     +0.018     +0.013
      -0.147     +0.027     -0.063
vibration  14
      +0.007     +0.032     -0.079
      +0.001     +0.002     +0.002
      -0.096     -0.397     +0.909
      -0.002     -0.002     +0.000
      +0.000     +0.001     -0.000
      +0.001     +0.000     -0.000
      +0.002     +0.000     -0.002
vibration  15
      -0.000     -0.000     -0.000
      +0.000     +0.000     +0.000
      +0.001     +0.002     -0.001
      +0.001     +0.001     +0.002
      +0.001     -0.001     +0.000
      -0.030     +0.014     +0.053
      +0.453     -0.218     -0.862
