[Molden Format]
[FR-COORD] # Coordinates in bohr
  C    -0.745826    -1.834595    +0.013994 
  O    -3.014480    -1.955168    +0.020283 
  H    +0.496749    -3.447669    +0.021379 
  C    +0.624442    +0.663251    -0.005894 
  O    -0.321781    +2.716130    -0.017055 
  O    +3.135191    +0.224521    -0.009275 
  H    +4.139671    +1.754338    -0.021865 
[FREQ] # Frequencies in cm^-1
  161.9496
  282.6361
  512.7765
  568.4606
  711.3603
  725.1967
  925.6837
 1155.1210
 1218.4561
 1448.9607
 1534.8632
 1934.3970
 1988.5578
 3286.2711
 3877.4423
[FR-NORM-COORD] # Displacements in bohr
vibration  1
      +0.001     +0.002     +0.278
      -0.001     -0.001     -0.217
      +0.002     +0.006     +0.857
      +0.000     +0.000     +0.074
      +0.000     +0.000     +0.065
      -0.000     -0.001     -0.145
      -0.001     -0.002     -0.332
vibration  2
      +0.033     -0.103     +0.001
      -0.004     +0.465     -0.003
      -0.311     -0.365     +0.003
      +0.128     -0.226     +0.001
      -0.273     -0.414     +0.003
      +0.182     +0.194     -0.002
      -0.102     +0.384     -0.002
vibration  3
      +0.248     +0.129     -0.001
      +0.273     +0.172     -0.002
      +0.299     +0.175     -0.002
      -0.090     +0.082     -0.000
      -0.253     +0.007     +0.001
      -0.176     -0.308     +0.002
      +0.303     -0.634     +0.004
vibration  4
      -0.000     -0.000     -0.017
      -0.000     -0.000     -0.016
      -0.001     -0.002     -0.385
      +0.000     +0.001     +0.169
      -0.000     -0.000     -0.048
      +0.000     +0.000     +0.031
      -0.002     -0.006     -0.905
vibration  5
      +0.000     +0.000     +0.040
      -0.000     -0.000     -0.024
      -0.001     -0.003     -0.448
      +0.001     +0.002     +0.280
      -0.000     -0.001     -0.107
      -0.000     -0.001     -0.133
      +0.002     +0.006     +0.830
vibration  6
      +0.129     -0.208     +0.001
      +0.138     +0.147     -0.001
      +0.047     -0.269     +0.002
      -0.179     -0.164     +0.001
      +0.249     +0.027     -0.001
      -0.309     +0.100     +0.000
      -0.689     +0.351     -0.001
vibration  7
      +0.008     -0.463     +0.003
      -0.020     +0.079     -0.000
      -0.157     -0.601     +0.004
      +0.002     +0.171     -0.001
      -0.089     +0.211     -0.001
      +0.082     -0.015     -0.000
      +0.477     -0.277     +0.001
vibration  8
      -0.001     -0.002     -0.238
      +0.000     +0.000     +0.056
      +0.002     +0.006     +0.957
      +0.000     +0.001     +0.149
      -0.000     -0.000     -0.028
      -0.000     -0.000     -0.021
      -0.000     -0.000     -0.028
vibration  9
      +0.011     +0.000     -0.000
      +0.021     +0.021     -0.000
      +0.128     +0.101     -0.001
      -0.213     -0.054     +0.001
      -0.043     +0.095     -0.001
      +0.212     -0.117     +0.000
      -0.742     +0.551     -0.002
vibration  10
      -0.003     -0.017     +0.000
      -0.019     +0.026     -0.000
      +0.472     +0.353     -0.003
      -0.217     -0.081     +0.001
      +0.049     -0.027     +0.000
      +0.063     +0.075     -0.001
      +0.675     -0.360     +0.001
vibration  11
      +0.009     +0.089     -0.001
      +0.066     -0.031     +0.000
      -0.804     -0.498     +0.005
      -0.110     -0.046     +0.001
      +0.012     +0.014     -0.000
      +0.034     +0.024     -0.000
      +0.245     -0.125     +0.000
vibration  12
      +0.699     +0.091     -0.002
      -0.488     -0.029     +0.001
      -0.012     -0.511     +0.003
      -0.040     -0.019     +0.000
      +0.001     +0.017     -0.000
      -0.006     -0.009     +0.000
      -0.010     -0.011     +0.000
vibration  13
      +0.013     -0.054     +0.000
      +0.002     +0.004     -0.000
      -0.160     -0.181     +0.002
      -0.291     +0.707     -0.004
      +0.194     -0.442     +0.002
      +0.040     -0.052     +0.000
      -0.277     +0.199     -0.001
vibration  14
      +0.054     -0.069     +0.000
      -0.004     +0.000     +0.000
      -0.594     +0.800     -0.004
      +0.004     +0.001     -0.000
      -0.000     +0.000     -0.000
      -0.001     -0.000     +0.000
      -0.002     +0.003     -0.000
vibration  15
      -0.000     -0.001     +0.000
      -0.000     -0.000     +0.000
      -0.003     +0.000     +0.000
      +0.000     +0.003     -0.000
      -0.000     -0.000     +0.000
      +0.037     +0.050     -0.000
      -0.571     -0.818     +0.007
