[Molden Format]
[FR-COORD] # Coordinates in bohr
  C    +2.483661    -0.344190    +0.030622 
  C    -0.074174    +1.082029    -0.022536 
  O    -2.220016    -0.604882    +0.079147 
  H    +2.121353    -2.357925    -0.024410 
  H    +3.667965    +0.154590    -1.562947 
  H    +3.523854    +0.050944    +1.748237 
  H    -0.268026    +2.268263    +1.621878 
  H    -0.184366    +2.285754    -1.677217 
  H    -2.316877    -1.587017    -1.457944 
[FREQ] # Frequencies in cm^-1
 -266.9876
  351.9598
  464.2408
  921.8359
  938.6916
 1081.4159
 1161.4508
 1227.5400
 1380.8203
 1502.2966
 1534.6393
 1570.7842
 1662.0642
 1671.2665
 1696.8949
 3195.7299
 3210.7476
 3263.2139
 3272.9942
 3296.9376
 3858.0081
[FR-NORM-COORD] # Displacements in bohr
vibration  1
      -0.001     +0.000     +0.008
      +0.001     -0.002     -0.063
      +0.001     +0.006     +0.052
      +0.043     +0.006     -0.538
      +0.237     +0.398     +0.309
      -0.272     -0.404     +0.264
      +0.015     +0.115     -0.146
      -0.009     -0.120     -0.148
      -0.023     -0.061     +0.096
vibration  2
      +0.003     +0.012     +0.024
      +0.003     -0.005     -0.035
      +0.036     -0.050     +0.034
      -0.036     +0.022     +0.057
      +0.038     -0.027     +0.036
      -0.031     +0.047     +0.037
      +0.003     +0.053     -0.077
      -0.020     -0.058     -0.073
      -0.597     +0.675     -0.388
vibration  3
      -0.232     -0.058     -0.005
      -0.018     +0.198     -0.008
      +0.233     -0.090     +0.012
      -0.652     +0.020     -0.001
      -0.114     -0.299     +0.008
      -0.179     -0.292     +0.016
      -0.055     +0.182     +0.000
      -0.068     +0.167     -0.027
      +0.350     -0.018     -0.041
vibration  4
      +0.011     -0.002     +0.034
      -0.000     +0.012     +0.092
      -0.020     -0.012     -0.023
      -0.029     +0.010     -0.181
      -0.329     +0.128     -0.185
      +0.387     -0.182     -0.157
      -0.131     +0.447     -0.239
      +0.128     -0.431     -0.242
      +0.168     +0.112     -0.117
vibration  5
      +0.271     -0.066     -0.008
      -0.079     +0.254     -0.022
      -0.146     -0.116     +0.016
      -0.321     +0.035     +0.027
      +0.446     -0.421     +0.011
      +0.227     -0.347     +0.086
      -0.138     +0.144     +0.049
      -0.222     +0.239     -0.015
      +0.037     -0.040     -0.057
vibration  6
      -0.095     +0.203     -0.005
      +0.345     -0.029     -0.004
      -0.169     -0.106     +0.004
      -0.670     +0.305     -0.013
      +0.023     -0.205     -0.033
      -0.023     -0.217     +0.039
      +0.220     -0.086     +0.012
      +0.253     -0.027     +0.022
      -0.097     -0.156     +0.010
vibration  7
      -0.053     -0.064     -0.056
      +0.067     +0.078     +0.036
      -0.071     -0.057     +0.017
      +0.400     -0.143     +0.140
      +0.121     +0.136     +0.136
      -0.317     +0.338     +0.018
      +0.362     +0.224     -0.035
      -0.048     -0.060     -0.054
      +0.449     +0.243     -0.226
vibration  8
      +0.045     +0.075     -0.083
      -0.063     -0.125     +0.087
      +0.024     +0.060     -0.011
      -0.356     +0.128     +0.176
      +0.386     -0.324     +0.059
      -0.267     -0.093     +0.146
      +0.088     +0.122     -0.075
      -0.339     -0.364     -0.066
      +0.312     +0.181     -0.107
vibration  9
      +0.005     +0.019     +0.105
      -0.018     -0.037     -0.103
      -0.013     +0.010     +0.018
      -0.059     +0.034     -0.164
      -0.255     +0.019     -0.093
      +0.287     -0.139     -0.036
      +0.518     -0.192     +0.067
      -0.497     +0.123     +0.051
      +0.361     +0.206     -0.144
vibration  10
      -0.006     -0.026     +0.009
      +0.035     +0.042     +0.068
      +0.022     -0.005     -0.070
      -0.000     -0.018     +0.021
      -0.011     +0.087     +0.041
      -0.001     +0.078     -0.015
      +0.396     +0.227     -0.009
      -0.572     -0.155     -0.026
      -0.516     -0.328     +0.190
vibration  11
      -0.002     +0.047     -0.003
      -0.121     -0.006     +0.014
      +0.008     -0.024     -0.013
      +0.041     +0.031     +0.021
      +0.059     -0.133     -0.018
      +0.032     -0.137     +0.023
      +0.720     +0.150     +0.002
      +0.606     +0.062     +0.012
      -0.121     -0.088     +0.043
vibration  12
      -0.101     +0.063     +0.001
      +0.016     +0.008     +0.004
      +0.002     +0.002     -0.003
      +0.587     -0.081     -0.012
      +0.347     -0.431     +0.152
      +0.344     -0.358     -0.150
      -0.116     +0.002     -0.007
      -0.143     -0.016     +0.001
      -0.034     +0.002     +0.002
vibration  13
      +0.030     +0.022     +0.034
      +0.016     -0.012     +0.015
      +0.001     -0.004     -0.003
      +0.229     -0.015     -0.429
      -0.262     -0.493     -0.346
      -0.393     +0.102     +0.239
      -0.059     +0.201     -0.133
      -0.052     +0.156     +0.130
      -0.028     -0.015     +0.008
vibration  14
      +0.020     +0.020     -0.037
      +0.015     -0.016     -0.013
      -0.001     -0.003     +0.000
      +0.181     -0.039     +0.559
      -0.285     +0.214     -0.169
      -0.164     -0.551     +0.219
      -0.038     +0.168     -0.141
      -0.088     +0.202     +0.136
      -0.010     +0.002     -0.003
vibration  15
      -0.014     -0.020     +0.003
      +0.003     -0.081     -0.002
      -0.004     -0.003     +0.003
      -0.167     +0.019     -0.062
      +0.203     +0.090     +0.189
      +0.209     +0.167     -0.170
      -0.050     +0.480     -0.387
      -0.040     +0.492     +0.384
      +0.031     +0.003     -0.006
vibration  16
      -0.020     +0.003     +0.011
      -0.006     +0.049     -0.048
      +0.001     +0.001     +0.000
      -0.033     -0.162     -0.001
      +0.194     +0.093     -0.277
      +0.075     +0.034     +0.142
      +0.011     -0.086     -0.156
      +0.050     -0.503     +0.728
      -0.001     -0.002     -0.004
vibration  17
      +0.038     -0.024     +0.002
      -0.004     +0.020     -0.022
      +0.000     +0.001     +0.000
      +0.112     +0.525     +0.016
      -0.291     -0.136     +0.413
      -0.259     -0.115     -0.455
      +0.002     -0.023     -0.046
      +0.023     -0.217     +0.311
      +0.001     +0.000     -0.002
vibration  18
      -0.007     -0.014     -0.084
      -0.003     +0.020     +0.024
      +0.000     -0.000     -0.001
      +0.030     +0.156     -0.020
      -0.311     -0.143     +0.404
      +0.371     +0.152     +0.614
      +0.035     -0.217     -0.314
      +0.001     -0.018     +0.035
      -0.000     +0.004     +0.008
vibration  19
      +0.045     +0.077     -0.019
      +0.000     +0.004     -0.012
      +0.000     -0.001     -0.000
      -0.145     -0.788     -0.028
      -0.304     -0.122     +0.432
      -0.087     -0.019     -0.175
      -0.005     +0.034     +0.045
      +0.008     -0.066     +0.093
      -0.004     +0.000     -0.001
vibration  20
      -0.008     -0.011     -0.032
      +0.006     -0.035     -0.074
      -0.000     +0.001     +0.002
      +0.018     +0.114     -0.005
      -0.090     -0.042     +0.114
      +0.164     +0.063     +0.271
      -0.088     +0.516     +0.737
      +0.016     -0.115     +0.140
      +0.005     -0.011     -0.025
vibration  21
      +0.000     -0.000     -0.000
      -0.002     +0.000     +0.004
      +0.006     +0.035     +0.051
      +0.002     -0.002     -0.000
      -0.001     -0.001     +0.001
      -0.001     -0.000     -0.001
      +0.003     -0.014     -0.021
      -0.002     +0.003     -0.008
      -0.070     -0.545     -0.833
