[Molden Format]
[FR-COORD] # Coordinates in bohr
  C    +2.450132    -0.303173    -0.032906 
  C    -0.086597    +1.094576    +0.017367 
  O    -2.222201    -0.611263    +0.016595 
  H    +2.595039    -1.460719    -1.718481 
  H    +4.006775    +1.026202    -0.031058 
  H    +2.633624    -1.510536    +1.613507 
  H    -0.201417    +2.260592    +1.692004 
  H    -0.239755    +2.310088    -1.618560 
  H    -1.668545    -2.347562    -0.015778 
[FREQ] # Frequencies in cm^-1
 -346.0547
  296.0760
  427.2005
  900.7256
  923.4037
 1104.9223
 1168.2345
 1288.6264
 1422.5747
 1430.4067
 1548.6909
 1574.3586
 1664.7306
 1674.4882
 1713.9573
 3195.5956
 3222.5259
 3238.6785
 3268.6260
 3268.7238
 3889.8697
[FR-NORM-COORD] # Displacements in bohr
vibration  1
      -0.000     +0.000     -0.025
      +0.001     -0.001     +0.054
      -0.001     +0.001     -0.089
      -0.053     +0.013     -0.033
      -0.000     +0.001     -0.042
      +0.052     -0.012     -0.035
      +0.048     -0.038     +0.091
      -0.046     +0.035     +0.093
      +0.011     -0.015     +0.977
vibration  2
      +0.000     -0.000     +0.003
      +0.001     -0.001     +0.067
      -0.001     +0.001     -0.050
      -0.286     -0.384     +0.239
      -0.007     +0.009     -0.589
      +0.291     +0.376     +0.244
      -0.011     -0.083     +0.123
      +0.014     +0.079     +0.125
      -0.002     +0.003     -0.174
vibration  3
      -0.201     -0.056     +0.001
      -0.022     +0.176     +0.003
      +0.199     -0.073     -0.003
      -0.463     -0.102     +0.008
      +0.075     -0.388     -0.007
      -0.463     -0.102     -0.001
      -0.060     +0.153     +0.015
      -0.060     +0.154     -0.009
      +0.467     +0.015     -0.005
vibration  4
      -0.001     +0.001     -0.045
      -0.001     +0.001     -0.068
      +0.000     -0.000     +0.019
      +0.359     -0.264     +0.177
      +0.002     -0.003     +0.191
      -0.355     +0.259     +0.193
      +0.263     -0.365     +0.213
      -0.258     +0.358     +0.230
      +0.000     -0.000     +0.031
vibration  5
      +0.263     -0.054     -0.004
      -0.063     +0.233     +0.004
      -0.168     -0.108     +0.000
      -0.070     -0.136     +0.019
      +0.616     -0.472     -0.014
      -0.071     -0.135     -0.021
      -0.199     +0.171     +0.027
      -0.200     +0.172     -0.017
      +0.199     -0.003     -0.002
vibration  6
      -0.097     +0.191     +0.004
      +0.333     -0.014     -0.004
      -0.139     -0.111     -0.000
      -0.459     +0.094     +0.043
      +0.264     -0.245     -0.007
      -0.460     +0.095     -0.030
      +0.194     -0.053     -0.001
      +0.194     -0.052     -0.005
      -0.343     -0.197     +0.001
vibration  7
      +0.070     +0.082     +0.000
      -0.088     -0.107     -0.001
      +0.097     +0.066     -0.000
      -0.296     -0.053     +0.054
      +0.402     -0.327     -0.010
      -0.297     -0.051     -0.049
      -0.300     -0.105     -0.015
      -0.300     -0.106     +0.019
      -0.532     -0.119     +0.004
vibration  8
      +0.001     -0.001     +0.097
      -0.002     +0.002     -0.159
      +0.001     -0.001     +0.044
      -0.255     +0.217     -0.088
      -0.002     +0.003     -0.198
      +0.252     -0.214     -0.101
      -0.278     -0.485     +0.153
      +0.282     +0.480     +0.161
      +0.001     -0.002     +0.112
vibration  9
      +0.020     +0.081     +0.001
      -0.050     -0.132     -0.001
      -0.044     +0.050     +0.001
      -0.171     -0.039     +0.056
      +0.214     -0.162     -0.005
      -0.172     -0.037     -0.053
      +0.192     -0.119     -0.003
      +0.192     -0.118     -0.005
      +0.797     +0.302     -0.005
vibration  10
      +0.001     -0.001     +0.095
      -0.000     +0.001     -0.042
      -0.000     +0.000     -0.019
      -0.195     +0.186     -0.055
      -0.002     +0.002     -0.139
      +0.194     -0.185     -0.065
      +0.637     +0.031     -0.008
      -0.637     -0.031     +0.006
      -0.001     +0.001     -0.066
vibration  11
      -0.044     -0.018     +0.000
      +0.123     -0.021     -0.002
      -0.020     +0.035     +0.001
      +0.159     +0.026     -0.013
      +0.009     -0.075     -0.001
      +0.159     +0.026     +0.010
      -0.627     -0.107     -0.004
      -0.627     -0.108     +0.016
      +0.307     +0.134     -0.002
vibration  12
      +0.111     -0.066     -0.002
      +0.023     -0.004     -0.000
      -0.006     +0.008     +0.000
      -0.498     +0.147     -0.180
      -0.357     +0.459     +0.011
      -0.494     +0.142     +0.196
      -0.116     -0.045     +0.018
      -0.116     -0.045     -0.016
      +0.087     +0.034     -0.000
vibration  13
      +0.001     -0.001     +0.050
      +0.000     -0.000     +0.020
      -0.000     +0.000     -0.002
      +0.461     +0.179     -0.058
      -0.008     +0.011     -0.705
      -0.462     -0.177     -0.053
      -0.031     +0.030     -0.000
      +0.031     -0.030     -0.002
      +0.000     -0.000     +0.015
vibration  14
      +0.023     +0.046     +0.000
      +0.022     +0.005     -0.000
      -0.002     -0.003     -0.000
      -0.068     -0.524     +0.368
      -0.217     +0.294     +0.007
      -0.076     -0.513     -0.382
      -0.072     +0.091     -0.059
      -0.070     +0.089     +0.063
      +0.010     +0.003     -0.000
vibration  15
      -0.002     +0.011     +0.000
      -0.010     +0.085     +0.001
      +0.006     +0.005     +0.000
      +0.013     -0.083     +0.064
      -0.026     +0.042     +0.001
      +0.012     -0.081     -0.067
      +0.050     -0.555     +0.416
      +0.041     -0.542     -0.433
      -0.032     -0.006     +0.000
vibration  16
      +0.036     -0.034     -0.001
      -0.001     -0.001     -0.000
      +0.000     +0.000     +0.000
      -0.033     +0.347     +0.524
      -0.336     -0.304     -0.001
      -0.045     +0.363     -0.512
      +0.000     +0.006     +0.011
      +0.000     +0.007     -0.011
      +0.002     +0.003     +0.000
vibration  17
      -0.009     -0.016     -0.000
      -0.010     +0.064     +0.001
      +0.002     -0.000     -0.000
      -0.005     +0.035     +0.061
      +0.117     +0.110     +0.000
      -0.007     +0.037     -0.060
      +0.041     -0.372     -0.583
      +0.054     -0.389     +0.571
      -0.010     +0.010     +0.000
vibration  18
      +0.001     -0.001     +0.068
      -0.001     +0.001     -0.064
      +0.000     -0.000     +0.000
      +0.031     -0.299     -0.424
      +0.000     -0.000     +0.020
      -0.040     +0.312     -0.414
      -0.032     +0.271     +0.388
      +0.041     -0.283     +0.379
      -0.000     +0.000     -0.001
vibration  19
      +0.001     -0.001     +0.063
      +0.001     -0.001     +0.071
      -0.000     +0.000     -0.001
      +0.033     -0.275     -0.387
      +0.000     -0.000     +0.017
      -0.042     +0.287     -0.378
      +0.041     -0.295     -0.424
      -0.050     +0.308     -0.414
      +0.000     -0.000     +0.007
vibration  20
      -0.050     -0.074     -0.001
      +0.001     -0.014     -0.000
      +0.000     +0.001     +0.000
      -0.032     +0.157     +0.260
      +0.667     +0.567     +0.001
      -0.038     +0.165     -0.254
      -0.010     +0.076     +0.115
      -0.013     +0.079     -0.112
      +0.007     -0.002     -0.000
vibration  21
      +0.000     +0.001     +0.000
      +0.003     -0.001     -0.000
      +0.016     -0.061     -0.001
      -0.002     +0.001     -0.002
      +0.004     +0.001     -0.000
      -0.002     +0.001     +0.002
      +0.002     +0.004     +0.008
      +0.002     +0.005     -0.008
      -0.289     +0.955     +0.018
