[Molden Format]
[FR-COORD] # Coordinates in bohr
  C    +2.499259    -0.301059    -0.026733 
  C    -0.093239    +1.076464    +0.015425 
  O    -2.259180    -0.595752    +0.012377 
  H    +2.241964    -2.335567    -0.051981 
  H    +3.583211    +0.203082    -1.686799 
  H    +3.612867    +0.157791    +1.626870 
  H    -0.226352    +2.247840    +1.682842 
  H    -0.256131    +2.292772    -1.616791 
  H    -1.748833    -2.343510    -0.015938 
[FREQ] # Frequencies in cm^-1
 -394.6463
 -295.8316
  483.0645
  926.5513
  950.0203
 1071.9177
 1166.6158
 1281.5504
 1405.2543
 1405.4217
 1551.0931
 1585.5538
 1660.3424
 1671.8942
 1718.5086
 3201.6610
 3229.1218
 3252.1087
 3258.9039
 3283.1810
 3902.0283
[FR-NORM-COORD] # Displacements in bohr
vibration  1
      -0.000     +0.000     -0.021
      +0.000     -0.001     +0.048
      -0.001     +0.001     -0.084
      -0.001     +0.001     -0.089
      -0.017     +0.037     -0.021
      +0.016     -0.036     -0.022
      +0.049     -0.033     +0.082
      -0.048     +0.031     +0.084
      +0.009     -0.013     +0.978
vibration  2
      -0.000     +0.000     -0.011
      +0.001     -0.001     +0.068
      -0.000     +0.001     -0.054
      +0.005     -0.007     +0.546
      -0.245     -0.401     -0.292
      +0.239     +0.409     -0.285
      -0.007     -0.120     +0.151
      +0.010     +0.116     +0.154
      -0.001     +0.001     -0.090
vibration  3
      -0.231     -0.066     +0.001
      -0.025     +0.185     +0.003
      +0.222     -0.075     -0.003
      -0.582     -0.020     +0.005
      -0.142     -0.285     -0.006
      -0.142     -0.285     +0.001
      -0.051     +0.167     +0.015
      -0.051     +0.168     -0.010
      +0.499     +0.014     -0.004
vibration  4
      +0.274     -0.087     -0.004
      -0.093     +0.273     +0.004
      -0.162     -0.118     -0.000
      -0.237     -0.027     +0.002
      +0.345     -0.363     -0.044
      +0.345     -0.364     +0.028
      -0.167     +0.203     +0.041
      -0.168     +0.204     -0.032
      +0.301     +0.007     -0.003
vibration  5
      +0.000     -0.001     +0.045
      +0.001     -0.001     +0.087
      -0.000     +0.000     -0.031
      -0.002     +0.003     -0.212
      -0.411     +0.160     -0.180
      +0.408     -0.155     -0.192
      -0.193     +0.401     -0.214
      +0.189     -0.395     -0.228
      -0.000     +0.001     -0.052
vibration  6
      -0.058     +0.177     +0.003
      +0.261     -0.014     -0.003
      -0.108     -0.089     -0.000
      -0.711     +0.261     +0.010
      +0.065     -0.270     -0.046
      +0.066     -0.271     +0.037
      +0.095     -0.048     -0.005
      +0.095     -0.048     +0.002
      -0.309     -0.164     +0.001
vibration  7
      +0.098     +0.063     -0.000
      -0.150     -0.101     +0.000
      +0.119     +0.075     -0.000
      -0.498     +0.130     +0.006
      +0.153     -0.297     -0.070
      +0.154     -0.299     +0.059
      -0.294     -0.096     -0.008
      -0.294     -0.097     +0.011
      -0.487     -0.085     +0.003
vibration  8
      +0.001     -0.002     +0.127
      -0.002     +0.002     -0.162
      +0.000     -0.000     +0.035
      -0.002     +0.004     -0.261
      -0.424     +0.123     -0.121
      +0.422     -0.120     -0.132
      -0.125     -0.443     +0.136
      +0.127     +0.439     +0.145
      +0.001     -0.001     +0.083
vibration  9
      +0.001     -0.000     +0.065
      -0.000     -0.001     -0.012
      -0.001     +0.001     -0.026
      -0.002     +0.001     -0.072
      -0.141     +0.025     -0.023
      +0.141     -0.027     -0.025
      +0.681     +0.087     -0.010
      -0.678     -0.088     -0.000
      +0.005     +0.003     -0.087
vibration  10
      +0.013     +0.078     +0.000
      -0.057     -0.121     -0.001
      -0.041     +0.047     +0.001
      -0.150     +0.078     +0.003
      +0.041     -0.202     -0.063
      +0.039     -0.204     +0.057
      +0.207     -0.097     -0.005
      +0.218     -0.095     -0.001
      +0.813     +0.284     -0.003
vibration  11
      -0.008     -0.024     -0.000
      +0.112     -0.021     -0.001
      -0.018     +0.039     +0.001
      +0.033     -0.029     -0.001
      -0.012     +0.032     +0.015
      -0.012     +0.032     -0.014
      -0.642     -0.130     +0.009
      -0.642     -0.130     -0.001
      +0.321     +0.134     -0.001
vibration  12
      -0.105     +0.057     +0.002
      -0.004     +0.009     +0.000
      +0.004     -0.001     -0.000
      +0.570     -0.053     -0.006
      +0.408     -0.352     +0.185
      +0.404     -0.347     -0.201
      -0.038     +0.002     +0.001
      -0.038     +0.002     -0.000
      -0.075     -0.022     +0.000
vibration  13
      +0.001     -0.001     +0.049
      +0.000     -0.000     +0.019
      +0.000     -0.000     +0.000
      -0.005     +0.009     -0.694
      +0.108     -0.492     -0.060
      -0.112     +0.491     -0.042
      -0.028     +0.027     -0.000
      +0.028     -0.026     -0.001
      -0.000     +0.000     -0.019
vibration  14
      +0.028     +0.041     +0.000
      +0.017     -0.003     -0.000
      +0.002     -0.006     -0.000
      +0.377     -0.031     -0.002
      -0.382     -0.319     -0.360
      -0.375     -0.331     +0.358
      -0.058     +0.173     -0.116
      -0.056     +0.170     +0.122
      -0.063     -0.023     +0.000
vibration  15
      -0.005     -0.016     -0.000
      +0.010     -0.085     -0.001
      -0.007     -0.003     +0.000
      -0.122     +0.007     +0.001
      +0.125     +0.087     +0.113
      +0.123     +0.090     -0.112
      -0.068     +0.532     -0.404
      -0.060     +0.521     +0.420
      +0.051     +0.013     -0.000
vibration  16
      +0.030     -0.043     -0.001
      -0.001     -0.006     -0.000
      -0.000     +0.001     +0.000
      +0.117     +0.755     +0.009
      -0.226     -0.128     +0.367
      -0.233     -0.118     -0.367
      -0.004     +0.034     +0.054
      -0.005     +0.035     -0.053
      +0.005     +0.000     -0.000
vibration  17
      -0.013     -0.026     -0.000
      -0.010     +0.062     +0.001
      +0.002     -0.000     -0.000
      +0.038     +0.248     +0.003
      +0.059     +0.026     -0.104
      +0.062     +0.024     +0.104
      +0.042     -0.362     -0.565
      +0.051     -0.376     +0.553
      -0.008     +0.011     +0.000
vibration  18
      -0.001     +0.000     -0.049
      +0.001     -0.001     +0.082
      -0.000     +0.000     -0.001
      +0.000     +0.003     -0.015
      -0.194     -0.099     +0.297
      +0.202     +0.092     +0.300
      +0.045     -0.341     -0.486
      -0.055     +0.357     -0.480
      +0.000     -0.000     +0.004
vibration  19
      +0.052     +0.066     +0.000
      -0.003     +0.021     +0.001
      +0.001     -0.001     -0.000
      -0.072     -0.568     -0.007
      -0.269     -0.120     +0.447
      -0.277     -0.108     -0.445
      +0.014     -0.117     -0.183
      +0.016     -0.117     +0.173
      -0.010     +0.005     +0.000
vibration  20
      -0.001     +0.001     -0.079
      -0.000     +0.001     -0.051
      +0.000     -0.000     +0.001
      -0.000     -0.001     -0.022
      -0.320     -0.159     +0.483
      +0.327     +0.145     +0.479
      -0.029     +0.211     +0.301
      +0.034     -0.220     +0.295
      -0.000     +0.000     -0.004
vibration  21
      +0.000     +0.001     +0.000
      +0.003     -0.001     -0.000
      +0.014     -0.061     -0.001
      -0.002     +0.004     +0.000
      +0.002     +0.000     -0.001
      +0.002     +0.000     +0.001
      +0.002     +0.004     +0.009
      +0.002     +0.005     -0.009
      -0.269     +0.961     +0.015
