[Molden Format]
[FR-COORD] # Coordinates in bohr
  C    +1.363745    -0.290534    -0.001257 
  C    +2.589436    -2.438353    -0.098270 
  H    +2.221398    +1.533425    +0.099929 
  H    +4.611346    -2.455257    -0.079106 
  H    +1.619855    -4.211685    -0.197992 
  O    -1.276281    -0.225439    -0.024092 
  O    -1.982136    +2.452788    +0.105012 
  H    -3.809019    +2.276281    +0.077932 
[FREQ] # Frequencies in cm^-1
 -100.5926
   41.4742
  343.8398
  554.0703
  754.9754
  944.6263
 1067.9845
 1123.6989
 1215.2656
 1246.7411
 1444.1040
 1500.8575
 1587.5400
 1860.8814
 3351.6046
 3416.0272
 3440.2598
 3826.6284
[FR-NORM-COORD] # Displacements in bohr
vibration  1
      -0.001     -0.007     +0.144
      +0.001     +0.005     -0.107
      -0.004     -0.023     +0.452
      -0.000     -0.001     +0.016
      +0.004     +0.022     -0.427
      -0.001     -0.005     +0.089
      +0.002     +0.008     -0.165
      -0.007     -0.037     +0.737
vibration  2
      +0.001     +0.003     -0.067
      -0.001     -0.005     +0.095
      +0.002     +0.010     -0.196
      -0.001     -0.005     +0.091
      -0.002     -0.011     +0.222
      +0.001     +0.006     -0.124
      -0.000     -0.002     +0.037
      -0.009     -0.047     +0.933
vibration  3
      -0.191     -0.086     -0.006
      +0.128     +0.102     +0.006
      -0.329     -0.022     -0.004
      +0.135     +0.516     +0.028
      +0.504     -0.100     -0.000
      -0.197     -0.091     -0.007
      +0.212     +0.030     +0.004
      +0.179     +0.382     +0.021
vibration  4
      +0.008     -0.226     -0.011
      +0.212     -0.164     -0.006
      +0.163     -0.291     -0.013
      +0.226     +0.248     +0.015
      +0.614     -0.379     -0.013
      -0.020     +0.149     +0.007
      -0.197     +0.176     +0.007
      -0.178     -0.088     -0.006
vibration  5
      -0.002     -0.010     +0.193
      +0.000     +0.002     -0.033
      +0.003     +0.013     -0.261
      +0.008     +0.043     -0.843
      -0.004     -0.021     +0.419
      +0.001     +0.003     -0.066
      +0.000     +0.001     -0.011
      -0.000     -0.000     +0.001
vibration  6
      +0.188     +0.039     +0.004
      +0.153     -0.031     -0.000
      -0.094     +0.171     +0.008
      +0.146     -0.686     -0.033
      -0.394     +0.251     +0.009
      -0.191     -0.117     -0.008
      -0.040     +0.105     +0.005
      -0.067     +0.349     +0.017
vibration  7
      -0.000     -0.002     +0.034
      +0.002     +0.008     -0.155
      -0.002     -0.010     +0.195
      -0.005     -0.026     +0.516
      -0.008     -0.042     +0.817
      +0.000     +0.000     -0.005
      +0.000     +0.000     -0.000
      -0.000     -0.000     +0.003
vibration  8
      +0.001     +0.006     -0.113
      -0.001     -0.003     +0.055
      -0.008     -0.042     +0.835
      +0.005     +0.023     -0.460
      -0.003     -0.014     +0.272
      -0.000     -0.000     +0.004
      +0.000     +0.000     -0.001
      -0.000     -0.000     +0.001
vibration  9
      -0.044     -0.004     -0.001
      -0.176     +0.046     +0.001
      -0.078     -0.004     -0.001
      -0.178     +0.556     +0.027
      +0.146     -0.112     -0.004
      +0.274     -0.516     -0.023
      -0.098     +0.463     +0.023
      -0.075     -0.105     -0.006
vibration  10
      +0.173     +0.104     +0.007
      -0.111     -0.058     -0.004
      +0.503     -0.041     +0.003
      -0.092     +0.489     +0.024
      +0.423     -0.331     -0.013
      -0.089     -0.028     -0.002
      -0.006     -0.037     -0.002
      -0.042     +0.374     +0.019
vibration  11
      -0.040     -0.062     -0.004
      +0.023     +0.099     +0.005
      +0.793     -0.459     -0.015
      +0.011     +0.018     +0.001
      -0.271     +0.265     +0.011
      -0.021     -0.019     -0.001
      +0.000     +0.003     +0.000
      -0.001     -0.006     -0.000
vibration  12
      +0.057     +0.022     +0.002
      -0.021     -0.001     -0.000
      +0.056     +0.027     +0.002
      -0.018     +0.070     +0.003
      +0.048     -0.035     -0.001
      -0.094     -0.002     -0.001
      +0.051     +0.044     +0.003
      +0.150     -0.972     -0.048
vibration  13
      -0.084     +0.081     +0.003
      -0.004     +0.028     +0.001
      +0.249     -0.064     -0.001
      +0.000     -0.719     -0.037
      +0.561     -0.291     -0.009
      +0.009     -0.019     -0.001
      +0.005     +0.007     +0.000
      +0.008     -0.040     -0.002
vibration  14
      +0.246     -0.326     -0.014
      -0.190     +0.322     +0.014
      -0.438     -0.090     -0.009
      -0.255     -0.395     -0.023
      +0.509     +0.017     +0.006
      -0.013     +0.035     +0.002
      -0.016     -0.009     -0.001
      -0.023     +0.096     +0.005
vibration  15
      -0.009     -0.003     -0.000
      +0.033     -0.060     -0.003
      +0.058     +0.122     +0.007
      -0.678     +0.001     -0.007
      +0.345     +0.630     +0.035
      -0.000     -0.000     -0.000
      +0.000     +0.000     +0.000
      -0.001     -0.001     -0.000
vibration  16
      +0.027     +0.075     +0.004
      -0.032     -0.035     -0.002
      -0.371     -0.802     -0.044
      +0.244     -0.004     +0.002
      +0.182     +0.339     +0.019
      -0.000     +0.000     +0.000
      -0.000     -0.000     -0.000
      +0.011     -0.003     -0.000
vibration  17
      +0.015     +0.038     +0.002
      +0.081     +0.036     +0.003
      -0.183     -0.404     -0.022
      -0.687     +0.017     -0.006
      -0.260     -0.503     -0.028
      -0.001     +0.000     +0.000
      -0.000     -0.000     -0.000
      +0.007     -0.001     +0.000
vibration  18
      -0.001     -0.001     -0.000
      +0.000     +0.000     +0.000
      +0.006     +0.010     +0.001
      +0.001     -0.001     -0.000
      -0.000     +0.001     +0.000
      +0.001     -0.002     -0.000
      -0.063     -0.004     -0.001
      +0.993     +0.095     +0.015
