[Molden Format]
[FR-COORD] # Coordinates in bohr
  C    +1.432388    +0.913388    +0.516523 
  C    +2.757664    -1.181306    +0.518119 
  H    +2.265405    +2.750981    +0.643463 
  H    +4.775762    -1.093686    +0.598436 
  H    +1.932485    -3.032519    +0.493179 
  O    -1.201078    +1.118325    +0.450175 
  O    -2.433277    -0.703043    -1.240981 
  H    -1.184036    -2.025527    -1.503708 
[FREQ] # Frequencies in cm^-1
 -440.9400
  -97.4366
  344.1886
  631.4414
  782.9034
  937.7117
 1067.9478
 1119.0197
 1149.7219
 1285.9059
 1463.4498
 1527.0383
 1602.8125
 1839.9769
 3341.7034
 3393.3516
 3429.0924
 3787.0373
[FR-NORM-COORD] # Displacements in bohr
vibration  1
      -0.003     -0.003     +0.023
      -0.018     -0.015     +0.000
      +0.008     -0.008     +0.040
      -0.017     -0.030     -0.000
      -0.059     +0.003     +0.018
      +0.011     +0.037     -0.039
      -0.016     -0.052     +0.066
      +0.387     +0.486     -0.772
vibration  2
      -0.019     -0.025     +0.148
      +0.004     -0.010     -0.094
      -0.037     -0.050     +0.631
      -0.009     +0.023     +0.195
      +0.086     -0.037     -0.588
      +0.017     +0.108     -0.151
      -0.004     -0.067     +0.076
      -0.083     -0.180     +0.298
vibration  3
      -0.044     +0.091     -0.000
      -0.269     -0.049     -0.131
      +0.080     +0.039     -0.101
      -0.252     -0.325     -0.337
      -0.496     +0.050     +0.035
      -0.038     +0.075     +0.084
      +0.290     -0.089     +0.020
      +0.380     -0.046     +0.306
vibration  4
      +0.135     +0.171     +0.004
      -0.090     +0.061     +0.009
      +0.009     +0.208     +0.256
      -0.087     -0.449     +0.272
      -0.559     +0.272     -0.213
      +0.102     -0.139     -0.010
      -0.082     -0.029     -0.010
      -0.207     -0.122     -0.145
vibration  5
      +0.041     +0.020     +0.201
      +0.029     +0.011     -0.030
      +0.034     +0.051     -0.158
      +0.063     -0.100     -0.805
      -0.122     +0.068     +0.468
      +0.014     +0.011     -0.058
      -0.058     -0.030     -0.041
      -0.095     -0.085     +0.027
vibration  6
      +0.259     +0.057     -0.020
      +0.184     -0.092     -0.004
      +0.290     +0.047     -0.031
      +0.204     -0.602     +0.277
      -0.180     +0.063     -0.227
      -0.273     +0.203     +0.138
      -0.091     -0.150     -0.128
      +0.181     +0.068     +0.112
vibration  7
      +0.005     +0.019     +0.004
      -0.040     -0.002     +0.132
      +0.121     -0.009     -0.348
      -0.019     +0.081     -0.444
      +0.118     -0.054     -0.787
      +0.024     +0.009     +0.015
      -0.010     -0.021     -0.014
      -0.017     -0.019     -0.049
vibration  8
      -0.004     -0.018     -0.108
      +0.088     -0.010     +0.100
      -0.329     +0.077     +0.539
      +0.128     -0.380     -0.546
      -0.218     +0.117     -0.077
      -0.100     -0.048     -0.062
      +0.061     +0.077     +0.071
      +0.035     +0.073     +0.043
vibration  9
      +0.022     +0.029     -0.107
      -0.071     -0.014     +0.046
      +0.143     -0.081     +0.763
      -0.067     +0.330     -0.347
      +0.205     -0.132     +0.224
      +0.072     +0.056     +0.073
      -0.054     -0.073     -0.067
      +0.019     -0.029     -0.004
vibration  10
      +0.209     +0.140     +0.034
      -0.107     -0.097     -0.017
      +0.431     +0.048     +0.061
      -0.114     +0.481     -0.009
      +0.518     -0.364     +0.099
      -0.165     -0.121     -0.096
      +0.037     +0.075     +0.076
      -0.024     +0.051     -0.018
vibration  11
      -0.026     -0.063     -0.010
      +0.017     +0.092     +0.006
      +0.771     -0.435     +0.095
      +0.010     +0.056     -0.026
      -0.274     +0.232     +0.002
      -0.039     -0.013     -0.010
      +0.023     +0.008     +0.018
      -0.149     -0.124     -0.143
vibration  12
      +0.023     -0.004     -0.004
      +0.002     -0.032     -0.002
      -0.236     +0.113     -0.012
      -0.003     +0.134     +0.001
      -0.039     -0.006     +0.023
      -0.025     +0.054     +0.024
      +0.060     -0.010     +0.016
      -0.567     -0.503     -0.572
vibration  13
      -0.099     +0.086     -0.002
      +0.009     +0.012     -0.004
      +0.250     -0.059     +0.033
      +0.052     -0.693     +0.005
      +0.558     -0.258     +0.072
      +0.014     -0.002     +0.003
      +0.008     -0.001     +0.004
      -0.124     -0.113     -0.146
vibration  14
      +0.234     -0.277     -0.003
      -0.196     +0.294     -0.000
      -0.376     -0.080     -0.017
      -0.208     -0.471     -0.031
      +0.570     +0.011     +0.050
      -0.033     +0.020     +0.004
      +0.005     +0.000     +0.000
      +0.005     +0.011     -0.023
vibration  15
      -0.009     -0.002     -0.001
      +0.021     -0.068     +0.001
      +0.050     +0.111     +0.008
      -0.533     -0.035     -0.021
      +0.344     +0.759     +0.013
      -0.000     -0.000     -0.000
      -0.000     +0.000     -0.000
      +0.003     +0.001     +0.002
vibration  16
      +0.027     +0.078     +0.006
      -0.024     -0.028     -0.001
      -0.375     -0.849     -0.058
      +0.230     +0.009     +0.009
      +0.110     +0.247     +0.005
      +0.001     -0.000     +0.000
      -0.001     -0.000     -0.000
      -0.002     +0.001     +0.000
vibration  17
      +0.011     +0.030     +0.002
      +0.085     +0.034     +0.003
      -0.135     -0.311     -0.022
      -0.812     -0.024     -0.033
      -0.179     -0.426     -0.006
      -0.001     +0.000     +0.000
      -0.000     -0.000     -0.000
      -0.000     -0.004     -0.004
vibration  18
      -0.002     +0.001     +0.000
      +0.001     +0.000     -0.000
      +0.002     +0.000     +0.001
      -0.003     -0.002     -0.001
      +0.005     -0.003     +0.006
      +0.002     +0.001     +0.001
      +0.042     -0.046     -0.010
      -0.686     +0.714     +0.129
