[Molden Format]
[FR-COORD] # Coordinates in bohr
  C    +1.383720    -0.162848    -0.317473 
  C    +2.603966    -2.312156    -0.418919 
  H    +2.241558    +1.661080    -0.205700 
  H    +4.625872    -2.340109    -0.457340 
  H    +1.619746    -4.078634    -0.488221 
  O    -1.256429    -0.099436    -0.445489 
  O    -2.038742    +2.103242    +1.053058 
  H    -3.671132    +2.425258    +0.276767 
[FREQ] # Frequencies in cm^-1
   86.8413
  169.8541
  356.4940
  544.1955
  787.8197
  960.4309
 1085.7001
 1130.6128
 1195.6631
 1247.2042
 1445.6163
 1496.2803
 1584.0745
 1861.2180
 3351.2321
 3411.4534
 3440.0775
 3819.1513
[FR-NORM-COORD] # Displacements in bohr
vibration  1
      -0.004     -0.055     +0.206
      +0.052     -0.005     -0.207
      -0.051     -0.057     +0.584
      +0.054     +0.063     -0.149
      +0.109     -0.021     -0.602
      -0.001     -0.082     +0.185
      -0.042     +0.125     -0.156
      -0.003     +0.038     -0.274
vibration  2
      +0.003     -0.006     +0.026
      -0.009     -0.012     +0.002
      +0.012     -0.013     +0.082
      -0.009     -0.024     +0.048
      -0.018     -0.005     -0.068
      +0.010     +0.016     -0.026
      +0.023     +0.038     -0.040
      -0.432     -0.611     +0.648
vibration  3
      +0.176     +0.082     -0.032
      -0.101     -0.080     -0.044
      +0.300     +0.040     -0.276
      -0.114     -0.438     -0.326
      -0.432     +0.091     +0.219
      +0.173     +0.049     +0.107
      -0.203     -0.015     -0.013
      -0.162     -0.262     -0.204
vibration  4
      +0.001     +0.209     +0.057
      -0.208     +0.138     +0.010
      -0.152     +0.262     +0.221
      -0.221     -0.277     +0.104
      -0.605     +0.360     -0.114
      +0.029     -0.161     +0.016
      +0.178     -0.122     -0.081
      +0.156     +0.005     +0.029
vibration  5
      -0.049     -0.018     +0.183
      -0.017     +0.020     -0.021
      -0.028     -0.002     -0.234
      -0.029     +0.149     -0.819
      +0.065     -0.042     +0.447
      +0.015     +0.023     -0.060
      +0.033     -0.032     -0.025
      +0.020     +0.020     +0.026
vibration  6
      +0.172     +0.033     +0.054
      +0.154     -0.027     -0.011
      -0.107     +0.162     +0.029
      +0.139     -0.664     -0.199
      -0.384     +0.251     +0.141
      -0.185     -0.089     -0.087
      -0.033     +0.084     +0.045
      -0.075     +0.263     +0.198
vibration  7
      -0.004     -0.007     +0.019
      -0.001     +0.008     -0.147
      -0.028     -0.011     +0.271
      +0.009     -0.015     +0.483
      +0.006     -0.032     +0.818
      +0.002     +0.012     +0.003
      +0.003     -0.008     -0.006
      +0.000     -0.011     +0.000
vibration  8
      +0.009     -0.003     +0.125
      -0.007     +0.011     -0.070
      +0.102     +0.013     -0.833
      +0.003     -0.002     +0.487
      +0.003     +0.011     -0.190
      -0.010     -0.009     -0.010
      +0.001     +0.000     +0.002
      +0.000     +0.023     +0.013
vibration  9
      -0.053     -0.001     +0.005
      -0.165     +0.044     -0.018
      -0.043     -0.025     +0.094
      -0.163     +0.529     +0.018
      +0.154     -0.123     +0.118
      +0.282     -0.435     -0.261
      -0.113     +0.383     +0.267
      -0.032     -0.056     -0.158
vibration  10
      +0.177     +0.107     +0.007
      -0.111     -0.060     -0.001
      +0.500     -0.041     +0.103
      -0.089     +0.485     -0.025
      +0.426     -0.342     +0.025
      -0.096     -0.038     -0.000
      -0.003     -0.021     -0.025
      -0.060     +0.268     +0.223
vibration  11
      -0.042     -0.064     -0.011
      +0.024     +0.098     +0.007
      +0.780     -0.460     +0.059
      +0.011     +0.031     -0.026
      -0.282     +0.273     +0.033
      -0.016     -0.019     -0.001
      -0.002     +0.000     -0.003
      -0.014     +0.043     +0.037
vibration  12
      +0.047     +0.018     +0.013
      -0.014     +0.002     +0.000
      +0.112     -0.008     +0.015
      -0.012     +0.051     -0.027
      +0.032     -0.021     +0.014
      -0.089     +0.009     -0.016
      +0.044     +0.022     +0.042
      +0.193     -0.761     -0.592
vibration  13
      -0.087     +0.080     +0.005
      -0.001     +0.029     -0.000
      +0.262     -0.074     +0.016
      -0.002     -0.723     -0.029
      +0.550     -0.290     -0.007
      +0.011     -0.016     -0.004
      +0.004     +0.003     +0.003
      +0.007     -0.016     -0.015
vibration  14
      +0.247     -0.320     -0.022
      -0.191     +0.325     +0.019
      -0.431     -0.092     -0.014
      -0.263     -0.401     -0.032
      +0.511     +0.012     -0.014
      -0.016     +0.027     +0.008
      -0.013     -0.003     -0.005
      -0.023     +0.051     +0.045
vibration  15
      -0.010     -0.005     -0.000
      +0.034     -0.059     -0.003
      +0.067     +0.143     +0.008
      -0.695     +0.006     +0.012
      +0.340     +0.609     +0.023
      -0.000     -0.000     -0.000
      +0.000     +0.000     +0.000
      -0.001     +0.000     -0.001
vibration  16
      +0.028     +0.077     +0.005
      -0.023     -0.034     -0.001
      -0.382     -0.830     -0.051
      +0.161     -0.003     -0.003
      +0.173     +0.314     +0.013
      -0.000     +0.000     +0.000
      -0.000     -0.000     -0.000
      +0.007     -0.004     +0.001
vibration  17
      +0.013     +0.032     +0.002
      +0.083     +0.040     +0.000
      -0.151     -0.335     -0.021
      -0.693     +0.021     +0.013
      -0.286     -0.540     -0.020
      -0.001     +0.000     -0.000
      -0.000     -0.000     -0.000
      +0.004     -0.002     +0.001
vibration  18
      -0.001     -0.001     -0.000
      +0.000     -0.000     +0.000
      +0.004     +0.007     +0.000
      +0.001     -0.001     +0.000
      -0.000     +0.001     -0.000
      +0.001     -0.001     -0.001
      -0.057     +0.013     -0.026
      +0.887     -0.174     +0.422
