[Molden Format]
[FR-COORD] # Coordinates in bohr
  C    +1.466931    +1.015016    +0.042054 
  C    +2.858809    -1.029094    -0.125899 
  H    +2.262010    +2.870502    +0.155072 
  H    +4.871306    -0.844003    -0.151661 
  H    +2.152495    -2.922166    -0.243216 
  O    -1.140606    +1.278569    +0.110225 
  O    -2.603449    -1.059507    -0.023355 
  H    -1.370817    -2.413379    -0.140548 
[FREQ] # Frequencies in cm^-1
 -546.3130
   95.3645
  364.6846
  667.9334
  741.1914
  929.5156
 1039.3343
 1138.0196
 1139.9000
 1308.9955
 1459.9334
 1530.5738
 1622.5352
 1848.6551
 3353.2979
 3395.9909
 3430.2473
 3816.1950
[FR-NORM-COORD] # Displacements in bohr
vibration  1
      +0.000     -0.001     +0.010
      +0.000     -0.001     +0.017
      -0.001     +0.003     -0.047
      -0.001     +0.002     -0.033
      +0.003     -0.011     +0.157
      -0.001     +0.002     -0.030
      +0.001     -0.005     +0.066
      -0.019     +0.068     -0.980
vibration  2
      +0.003     -0.011     +0.163
      -0.002     +0.006     -0.080
      +0.012     -0.044     +0.640
      +0.005     -0.018     +0.263
      -0.012     +0.045     -0.646
      -0.004     +0.014     -0.206
      +0.002     -0.008     +0.122
      +0.002     -0.006     +0.090
vibration  3
      +0.052     -0.084     -0.007
      +0.313     +0.093     +0.000
      -0.117     -0.009     +0.002
      +0.291     +0.377     +0.020
      +0.503     +0.018     -0.008
      +0.032     -0.117     -0.009
      -0.318     +0.093     +0.013
      -0.505     -0.098     +0.003
vibration  4
      +0.153     +0.189     +0.010
      -0.085     +0.069     +0.006
      +0.017     +0.245     +0.017
      -0.043     -0.499     -0.034
      -0.628     +0.272     +0.031
      +0.100     -0.133     -0.011
      -0.094     -0.049     -0.002
      -0.261     -0.200     -0.009
vibration  5
      +0.004     -0.013     +0.191
      -0.001     +0.003     -0.050
      -0.003     +0.012     -0.178
      -0.015     +0.056     -0.806
      +0.009     -0.034     +0.496
      -0.001     +0.005     -0.073
      -0.000     +0.001     -0.012
      +0.003     -0.010     +0.151
vibration  6
      +0.274     +0.062     -0.001
      +0.200     -0.109     -0.011
      +0.374     +0.028     -0.005
      +0.255     -0.594     -0.046
      -0.156     +0.011     +0.004
      -0.269     +0.284     +0.025
      -0.131     -0.220     -0.013
      +0.228     +0.112     +0.003
vibration  7
      -0.000     +0.001     -0.011
      +0.003     -0.010     +0.150
      -0.005     +0.020     -0.286
      -0.011     +0.038     -0.555
      -0.015     +0.053     -0.761
      -0.000     +0.000     -0.001
      +0.000     -0.000     +0.001
      -0.001     +0.004     -0.057
vibration  8
      +0.027     +0.045     +0.003
      -0.147     -0.002     +0.003
      +0.455     -0.126     -0.017
      -0.201     +0.639     +0.048
      +0.411     -0.193     -0.021
      +0.163     +0.111     +0.005
      -0.112     -0.156     -0.009
      -0.051     -0.127     -0.008
vibration  9
      -0.002     +0.008     -0.121
      +0.001     -0.004     +0.065
      +0.016     -0.059     +0.851
      -0.009     +0.032     -0.464
      +0.004     -0.013     +0.191
      -0.000     -0.000     +0.003
      +0.000     -0.000     +0.003
      +0.000     -0.000     +0.006
vibration  10
      +0.217     +0.159     +0.007
      -0.102     -0.116     -0.006
      +0.325     +0.120     +0.002
      -0.135     +0.476     +0.036
      +0.575     -0.361     -0.036
      -0.179     -0.159     -0.008
      +0.048     +0.110     +0.007
      -0.046     +0.036     +0.003
vibration  11
      -0.019     -0.053     -0.003
      +0.012     +0.085     +0.006
      +0.780     -0.400     -0.043
      +0.007     +0.052     +0.003
      -0.244     +0.192     +0.018
      -0.051     -0.020     -0.000
      +0.037     +0.021     +0.001
      -0.244     -0.236     -0.012
vibration  12
      +0.014     +0.002     -0.000
      +0.010     -0.045     -0.003
      -0.307     +0.143     +0.016
      -0.000     +0.123     +0.008
      -0.016     -0.028     -0.002
      -0.019     +0.066     +0.005
      +0.062     -0.006     -0.002
      -0.644     -0.665     -0.034
vibration  13
      -0.103     +0.088     +0.008
      +0.008     +0.009     +0.000
      +0.227     -0.038     -0.007
      +0.086     -0.684     -0.049
      +0.593     -0.241     -0.028
      +0.018     -0.004     -0.001
      +0.004     +0.001     -0.000
      -0.135     -0.149     -0.008
vibration  14
      +0.237     -0.268     -0.023
      -0.198     +0.277     +0.023
      -0.375     -0.080     +0.002
      -0.171     -0.477     -0.030
      +0.585     +0.037     -0.009
      -0.039     +0.027     +0.003
      +0.010     +0.003     -0.000
      -0.039     -0.046     -0.002
vibration  15
      -0.010     -0.005     -0.000
      +0.029     -0.064     -0.005
      +0.062     +0.143     +0.009
      -0.566     -0.066     +0.006
      +0.294     +0.747     +0.046
      -0.000     -0.000     -0.000
      -0.001     +0.001     +0.000
      +0.008     -0.002     -0.000
vibration  16
      +0.026     +0.079     +0.005
      -0.019     -0.031     -0.002
      -0.363     -0.860     -0.052
      +0.175     +0.014     -0.002
      +0.106     +0.275     +0.017
      +0.001     +0.000     -0.000
      -0.001     -0.001     -0.000
      +0.001     -0.001     -0.000
vibration  17
      +0.010     +0.028     +0.002
      +0.082     +0.041     +0.001
      -0.120     -0.289     -0.018
      -0.800     -0.061     +0.011
      -0.168     -0.469     -0.029
      -0.001     +0.001     +0.000
      +0.000     -0.000     -0.000
      -0.004     -0.004     -0.000
vibration  18
      -0.002     +0.001     +0.000
      +0.000     +0.000     -0.000
      +0.003     -0.001     -0.000
      -0.003     -0.003     -0.000
      +0.015     +0.002     -0.000
      +0.002     +0.001     +0.000
      +0.041     -0.047     -0.004
      -0.683     +0.725     +0.063
